1103
energy_gulp=-3637.13033296
Cu          -12.438814667        -7.102504313        -1.782027745
Cu          -12.478479276        -5.338891094        -3.551471255
Cu          -12.438814667        -7.102504313         1.782027745
Cu          -12.534548365        -5.355461886        -0.000000000
Cu          -12.478479276        -5.338891094         3.551471255
Cu          -12.478479276        -3.551471255        -5.338891094
Cu          -12.438814667        -1.782027745        -7.102504313
Cu          -12.560410195        -3.577401362        -1.788909297
Cu          -12.560410195        -1.788909297        -3.577401362
Cu          -12.560410195        -3.577401362         1.788909297
Cu          -12.585498016        -1.790161561        -0.000000000
Cu          -12.478479276        -3.551471255         5.338891094
Cu          -12.560410195        -1.788909297         3.577401362
Cu          -12.438814667        -1.782027745         7.102504313
Cu          -12.534548365        -0.000000000        -5.355461886
Cu          -12.438814667         1.782027745        -7.102504313
Cu          -12.585498016        -0.000000000        -1.790161561
Cu          -12.560410195         1.788909297        -3.577401362
Cu          -12.585498016        -0.000000000         1.790161561
Cu          -12.585498016         1.790161561        -0.000000000
Cu          -12.534548365        -0.000000000         5.355461886
Cu          -12.560410195         1.788909297         3.577401362
Cu          -12.438814667         1.782027745         7.102504313
Cu          -12.478479276         3.551471255        -5.338891094
Cu          -12.560410195         3.577401362        -1.788909297
Cu          -12.478479276         5.338891094        -3.551471255
Cu          -12.560410195         3.577401362         1.788909297
Cu          -12.534548365         5.355461886        -0.000000000
Cu          -12.478479276         3.551471255         5.338891094
Cu          -12.478479276         5.338891094         3.551471255
Cu          -12.438814667         7.102504313        -1.782027745
Cu          -12.438814667         7.102504313         1.782027745
Cu          -10.721823716        -8.931902743        -1.795642698
Cu           -8.931902743       -10.721823716        -1.795642698
Cu           -8.986880079        -8.986880079        -3.606194566
Cu          -10.721823716        -8.931902743         1.795642698
Cu           -8.931902743       -10.721823716         1.795642698
Cu           -8.994203210        -8.994203210        -0.000000000
Cu           -8.986880079        -8.986880079         3.606194566
Cu          -10.774673793        -5.388239314        -5.388239314
Cu           -8.996604159        -7.201446513        -5.409349157
Cu           -8.996604159        -5.409349157        -7.201446513
Cu          -10.763880704        -7.179135474        -3.599548892
Cu          -10.740515726        -5.360204125        -1.783682440
Cu           -8.980543092        -7.190554623        -1.810024357
Cu           -8.989814680        -5.403091603        -3.612343035
Cu          -10.758369223        -7.184529532        -0.000000000
Cu          -10.740515726        -5.360204125         1.783682440
Cu           -8.980543092        -7.190554623         1.810024357
Cu           -8.966725947        -5.387929694        -0.000000000
Cu          -10.763880704        -7.179135474         3.599548892
Cu          -10.774673793        -5.388239314         5.388239314
Cu           -8.996604159        -7.201446513         5.409349157
Cu           -8.989814680        -5.403091603         3.612343035
Cu           -8.996604159        -5.409349157         7.201446513
Cu          -10.721823716        -1.795642698        -8.931902743
Cu           -8.986880079        -3.606194566        -8.986880079
Cu           -8.931902743        -1.795642698       -10.721823716
Cu          -10.763880704        -3.599548892        -7.179135474
Cu          -10.740515726        -1.783682440        -5.360204125
Cu           -8.989814680        -3.612343035        -5.403091603
Cu           -8.980543092        -1.810024357        -7.190554623
Cu          -10.752387323        -3.574441183        -3.574441183
Cu          -10.793007189        -1.786210922        -1.786210922
Cu           -8.964961994        -3.582413785        -1.791460993
Cu           -8.964961994        -1.791460993        -3.582413785
Cu          -10.781149800        -3.568881939        -0.000000000
Cu          -10.793007189        -1.786210922         1.786210922
Cu           -8.964961994        -3.582413785         1.791460993
Cu           -8.978209264        -1.788039327        -0.000000000
Cu          -10.752387323        -3.574441183         3.574441183
Cu          -10.740515726        -1.783682440         5.360204125
Cu           -8.989814680        -3.612343035         5.403091603
Cu           -8.964961994        -1.791460993         3.582413785
Cu          -10.763880704        -3.599548892         7.179135474
Cu          -10.721823716        -1.795642698         8.931902743
Cu           -8.986880079        -3.606194566         8.986880079
Cu           -8.980543092        -1.810024357         7.190554623
Cu           -8.931902743        -1.795642698        10.721823716
Cu          -10.721823716         1.795642698        -8.931902743
Cu           -8.994203210        -0.000000000        -8.994203210
Cu           -8.931902743         1.795642698       -10.721823716
Cu          -10.758369223        -0.000000000        -7.184529532
Cu          -10.740515726         1.783682440        -5.360204125
Cu           -8.966725947        -0.000000000        -5.387929694
Cu           -8.980543092         1.810024357        -7.190554623
Cu          -10.781149800        -0.000000000        -3.568881939
Cu          -10.793007189         1.786210922        -1.786210922
Cu           -8.978209264        -0.000000000        -1.788039327
Cu           -8.964961994         1.791460993        -3.582413785
Cu          -10.805352176        -0.000000000        -0.000000000
Cu          -10.793007189         1.786210922         1.786210922
Cu           -8.978209264        -0.000000000         1.788039327
Cu           -8.978209264         1.788039327        -0.000000000
Cu          -10.781149800        -0.000000000         3.568881939
Cu          -10.740515726         1.783682440         5.360204125
Cu           -8.966725947        -0.000000000         5.387929694
Cu           -8.964961994         1.791460993         3.582413785
Cu          -10.758369223        -0.000000000         7.184529532
Cu          -10.721823716         1.795642698         8.931902743
Cu           -8.994203210        -0.000000000         8.994203210
Cu           -8.980543092         1.810024357         7.190554623
Cu           -8.931902743         1.795642698        10.721823716
Cu           -8.986880079         3.606194566        -8.986880079
Cu          -10.763880704         3.599548892        -7.179135474
Cu          -10.774673793         5.388239314        -5.388239314
Cu           -8.989814680         3.612343035        -5.403091603
Cu           -8.996604159         5.409349157        -7.201446513
Cu          -10.752387323         3.574441183        -3.574441183
Cu          -10.740515726         5.360204125        -1.783682440
Cu           -8.964961994         3.582413785        -1.791460993
Cu           -8.989814680         5.403091603        -3.612343035
Cu          -10.781149800         3.568881939        -0.000000000
Cu          -10.740515726         5.360204125         1.783682440
Cu           -8.964961994         3.582413785         1.791460993
Cu           -8.966725947         5.387929694        -0.000000000
Cu          -10.752387323         3.574441183         3.574441183
Cu          -10.774673793         5.388239314         5.388239314
Cu           -8.989814680         3.612343035         5.403091603
Cu           -8.989814680         5.403091603         3.612343035
Cu          -10.763880704         3.599548892         7.179135474
Cu           -8.986880079         3.606194566         8.986880079
Cu           -8.996604159         5.409349157         7.201446513
Cu           -8.996604159         7.201446513        -5.409349157
Cu          -10.763880704         7.179135474        -3.599548892
Cu          -10.721823716         8.931902743        -1.795642698
Cu           -8.980543092         7.190554623        -1.810024357
Cu           -8.986880079         8.986880079        -3.606194566
Cu          -10.758369223         7.184529532        -0.000000000
Cu          -10.721823716         8.931902743         1.795642698
Cu           -8.980543092         7.190554623         1.810024357
Cu           -8.994203210         8.994203210        -0.000000000
Cu          -10.763880704         7.179135474         3.599548892
Cu           -8.996604159         7.201446513         5.409349157
Cu           -8.986880079         8.986880079         3.606194566
Cu           -8.931902743        10.721823716        -1.795642698
Cu           -8.931902743        10.721823716         1.795642698
Cu           -7.102504313       -12.438814667        -1.782027745
Cu           -5.338891094       -12.478479276        -3.551471255
Cu           -7.102504313       -12.438814667         1.782027745
Cu           -5.355461886       -12.534548365        -0.000000000
Cu           -5.338891094       -12.478479276         3.551471255
Cu           -7.201446513        -8.996604159        -5.409349157
Cu           -5.388239314       -10.774673793        -5.388239314
Cu           -5.409349157        -8.996604159        -7.201446513
Cu           -7.179135474       -10.763880704        -3.599548892
Cu           -7.190554623        -8.980543092        -1.810024357
Cu           -5.360204125       -10.740515726        -1.783682440
Cu           -5.403091603        -8.989814680        -3.612343035
Cu           -7.184529532       -10.758369223        -0.000000000
Cu           -7.190554623        -8.980543092         1.810024357
Cu           -5.360204125       -10.740515726         1.783682440
Cu           -5.387929694        -8.966725947        -0.000000000
Cu           -7.179135474       -10.763880704         3.599548892
Cu           -7.201446513        -8.996604159         5.409349157
Cu           -5.388239314       -10.774673793         5.388239314
Cu           -5.403091603        -8.989814680         3.612343035
Cu           -5.409349157        -8.996604159         7.201446513
Cu           -7.201446513        -5.409349157        -8.996604159
Cu           -5.409349157        -7.201446513        -8.996604159
Cu           -5.388239314        -5.388239314       -10.774673793
Cu           -7.208755581        -7.208755581        -7.208755581
Cu           -7.211698480        -5.419101547        -5.419101547
Cu           -5.419101547        -7.211698480        -5.419101547
Cu           -5.419101547        -5.419101547        -7.211698480
Cu           -7.207622879        -7.207622879        -3.622684705
Cu           -7.190519093        -5.400319277        -1.809642088
Cu           -5.400319277        -7.190519093        -1.809642088
Cu           -5.407611270        -5.407611270        -3.614189254
Cu           -7.196431268        -7.196431268        -0.000000000
Cu           -7.190519093        -5.400319277         1.809642088
Cu           -5.400319277        -7.190519093         1.809642088
Cu           -5.399587900        -5.399587900        -0.000000000
Cu           -7.207622879        -7.207622879         3.622684705
Cu           -7.211698480        -5.419101547         5.419101547
Cu           -5.419101547        -7.211698480         5.419101547
Cu           -5.407611270        -5.407611270         3.614189254
Cu           -7.208755581        -7.208755581         7.208755581
Cu           -7.201446513        -5.409349157         8.996604159
Cu           -5.409349157        -7.201446513         8.996604159
Cu           -5.419101547        -5.419101547         7.211698480
Cu           -5.388239314        -5.388239314        10.774673793
Cu           -7.102504313        -1.782027745       -12.438814667
Cu           -5.338891094        -3.551471255       -12.478479276
Cu           -7.179135474        -3.599548892       -10.763880704
Cu           -7.190554623        -1.810024357        -8.980543092
Cu           -5.403091603        -3.612343035        -8.989814680
Cu           -5.360204125        -1.783682440       -10.740515726
Cu           -7.207622879        -3.622684705        -7.207622879
Cu           -7.190519093        -1.809642088        -5.400319277
Cu           -5.407611270        -3.614189254        -5.407611270
Cu           -5.400319277        -1.809642088        -7.190519093
Cu           -7.192093734        -3.606990176        -3.606990176
Cu           -7.172958381        -1.796418941        -1.796418941
Cu           -5.394255520        -3.604176390        -1.806158545
Cu           -5.394255520        -1.806158545        -3.604176390
Cu           -7.175866122        -3.595995875        -0.000000000
Cu           -7.172958381        -1.796418941         1.796418941
Cu           -5.394255520        -3.604176390         1.806158545
Cu           -5.381757517        -1.801208054        -0.000000000
Cu           -7.192093734        -3.606990176         3.606990176
Cu           -7.190519093        -1.809642088         5.400319277
Cu           -5.407611270        -3.614189254         5.407611270
Cu           -5.394255520        -1.806158545         3.604176390
Cu           -7.207622879        -3.622684705         7.207622879
Cu           -7.190554623        -1.810024357         8.980543092
Cu           -5.403091603        -3.612343035         8.989814680
Cu           -5.400319277        -1.809642088         7.190519093
Cu           -7.179135474        -3.599548892        10.763880704
Cu           -7.102504313        -1.782027745        12.438814667
Cu           -5.338891094        -3.551471255        12.478479276
Cu           -5.360204125        -1.783682440        10.740515726
Cu           -7.102504313         1.782027745       -12.438814667
Cu           -5.355461886        -0.000000000       -12.534548365
Cu           -7.184529532        -0.000000000       -10.758369223
Cu           -7.190554623         1.810024357        -8.980543092
Cu           -5.387929694        -0.000000000        -8.966725947
Cu           -5.360204125         1.783682440       -10.740515726
Cu           -7.196431268        -0.000000000        -7.196431268
Cu           -7.190519093         1.809642088        -5.400319277
Cu           -5.399587900        -0.000000000        -5.399587900
Cu           -5.400319277         1.809642088        -7.190519093
Cu           -7.175866122        -0.000000000        -3.595995875
Cu           -7.172958381         1.796418941        -1.796418941
Cu           -5.381757517        -0.000000000        -1.801208054
Cu           -5.394255520         1.806158545        -3.604176390
Cu           -7.172576439        -0.000000000        -0.000000000
Cu           -7.172958381         1.796418941         1.796418941
Cu           -5.381757517        -0.000000000         1.801208054
Cu           -5.381757517         1.801208054        -0.000000000
Cu           -7.175866122        -0.000000000         3.595995875
Cu           -7.190519093         1.809642088         5.400319277
Cu           -5.399587900        -0.000000000         5.399587900
Cu           -5.394255520         1.806158545         3.604176390
Cu           -7.196431268        -0.000000000         7.196431268
Cu           -7.190554623         1.810024357         8.980543092
Cu           -5.387929694        -0.000000000         8.966725947
Cu           -5.400319277         1.809642088         7.190519093
Cu           -7.184529532        -0.000000000        10.758369223
Cu           -7.102504313         1.782027745        12.438814667
Cu           -5.355461886        -0.000000000        12.534548365
Cu           -5.360204125         1.783682440        10.740515726
Cu           -5.338891094         3.551471255       -12.478479276
Cu           -7.179135474         3.599548892       -10.763880704
Cu           -7.201446513         5.409349157        -8.996604159
Cu           -5.403091603         3.612343035        -8.989814680
Cu           -5.388239314         5.388239314       -10.774673793
Cu           -7.207622879         3.622684705        -7.207622879
Cu           -7.211698480         5.419101547        -5.419101547
Cu           -5.407611270         3.614189254        -5.407611270
Cu           -5.419101547         5.419101547        -7.211698480
Cu           -7.192093734         3.606990176        -3.606990176
Cu           -7.190519093         5.400319277        -1.809642088
Cu           -5.394255520         3.604176390        -1.806158545
Cu           -5.407611270         5.407611270        -3.614189254
Cu           -7.175866122         3.595995875        -0.000000000
Cu           -7.190519093         5.400319277         1.809642088
Cu           -5.394255520         3.604176390         1.806158545
Cu           -5.399587900         5.399587900        -0.000000000
Cu           -7.192093734         3.606990176         3.606990176
Cu           -7.211698480         5.419101547         5.419101547
Cu           -5.407611270         3.614189254         5.407611270
Cu           -5.407611270         5.407611270         3.614189254
Cu           -7.207622879         3.622684705         7.207622879
Cu           -7.201446513         5.409349157         8.996604159
Cu           -5.403091603         3.612343035         8.989814680
Cu           -5.419101547         5.419101547         7.211698480
Cu           -7.179135474         3.599548892        10.763880704
Cu           -5.338891094         3.551471255        12.478479276
Cu           -5.388239314         5.388239314        10.774673793
Cu           -5.409349157         7.201446513        -8.996604159
Cu           -7.208755581         7.208755581        -7.208755581
Cu           -7.201446513         8.996604159        -5.409349157
Cu           -5.419101547         7.211698480        -5.419101547
Cu           -5.409349157         8.996604159        -7.201446513
Cu           -7.207622879         7.207622879        -3.622684705
Cu           -7.190554623         8.980543092        -1.810024357
Cu           -5.400319277         7.190519093        -1.809642088
Cu           -5.403091603         8.989814680        -3.612343035
Cu           -7.196431268         7.196431268        -0.000000000
Cu           -7.190554623         8.980543092         1.810024357
Cu           -5.400319277         7.190519093         1.809642088
Cu           -5.387929694         8.966725947         0.000000000
Cu           -7.207622879         7.207622879         3.622684705
Cu           -7.201446513         8.996604159         5.409349157
Cu           -5.419101547         7.211698480         5.419101547
Cu           -5.403091603         8.989814680         3.612343035
Cu           -7.208755581         7.208755581         7.208755581
Cu           -5.409349157         7.201446513         8.996604159
Cu           -5.409349157         8.996604159         7.201446513
Cu           -5.388239314        10.774673793        -5.388239314
Cu           -7.179135474        10.763880704        -3.599548892
Cu           -7.102504313        12.438814667        -1.782027745
Cu           -5.360204125        10.740515726        -1.783682440
Cu           -5.338891094        12.478479276        -3.551471255
Cu           -7.184529532        10.758369223         0.000000000
Cu           -7.102504313        12.438814667         1.782027745
Cu           -5.360204125        10.740515726         1.783682440
Cu           -5.355461886        12.534548365         0.000000000
Cu           -7.179135474        10.763880704         3.599548892
Cu           -5.388239314        10.774673793         5.388239314
Cu           -5.338891094        12.478479276         3.551471255
Cu           -3.551471255       -12.478479276        -5.338891094
Cu           -1.782027745       -12.438814667        -7.102504313
Cu           -3.577401362       -12.560410195        -1.788909297
Cu           -1.788909297       -12.560410195        -3.577401362
Cu           -3.577401362       -12.560410195         1.788909297
Cu           -1.790161561       -12.585498016        -0.000000000
Cu           -3.551471255       -12.478479276         5.338891094
Cu           -1.788909297       -12.560410195         3.577401362
Cu           -1.782027745       -12.438814667         7.102504313
Cu           -3.606194566        -8.986880079        -8.986880079
Cu           -1.795642698       -10.721823716        -8.931902743
Cu           -1.795642698        -8.931902743       -10.721823716
Cu           -3.599548892       -10.763880704        -7.179135474
Cu           -3.612343035        -8.989814680        -5.403091603
Cu           -1.783682440       -10.740515726        -5.360204125
Cu           -1.810024357        -8.980543092        -7.190554623
Cu           -3.574441183       -10.752387323        -3.574441183
Cu           -3.582413785        -8.964961994        -1.791460993
Cu           -1.786210922       -10.793007189        -1.786210922
Cu           -1.791460993        -8.964961994        -3.582413785
Cu           -3.568881939       -10.781149800        -0.000000000
Cu           -3.582413785        -8.964961994         1.791460993
Cu           -1.786210922       -10.793007189         1.786210922
Cu           -1.788039327        -8.978209264        -0.000000000
Cu           -3.574441183       -10.752387323         3.574441183
Cu           -3.612343035        -8.989814680         5.403091603
Cu           -1.783682440       -10.740515726         5.360204125
Cu           -1.791460993        -8.964961994         3.582413785
Cu           -3.599548892       -10.763880704         7.179135474
Cu           -3.606194566        -8.986880079         8.986880079
Cu           -1.795642698       -10.721823716         8.931902743
Cu           -1.810024357        -8.980543092         7.190554623
Cu           -1.795642698        -8.931902743        10.721823716
Cu           -3.551471255        -5.338891094       -12.478479276
Cu           -1.782027745        -7.102504313       -12.438814667
Cu           -3.599548892        -7.179135474       -10.763880704
Cu           -3.612343035        -5.403091603        -8.989814680
Cu           -1.810024357        -7.190554623        -8.980543092
Cu           -1.783682440        -5.360204125       -10.740515726
Cu           -3.622684705        -7.207622879        -7.207622879
Cu           -3.614189254        -5.407611270        -5.407611270
Cu           -1.809642088        -7.190519093        -5.400319277
Cu           -1.809642088        -5.400319277        -7.190519093
Cu           -3.606990176        -7.192093734        -3.606990176
Cu           -3.604176390        -5.394255520        -1.806158545
Cu           -1.796418941        -7.172958381        -1.796418941
Cu           -1.806158545        -5.394255520        -3.604176390
Cu           -3.595995875        -7.175866122        -0.000000000
Cu           -3.604176390        -5.394255520         1.806158545
Cu           -1.796418941        -7.172958381         1.796418941
Cu           -1.801208054        -5.381757517        -0.000000000
Cu           -3.606990176        -7.192093734         3.606990176
Cu           -3.614189254        -5.407611270         5.407611270
Cu           -1.809642088        -7.190519093         5.400319277
Cu           -1.806158545        -5.394255520         3.604176390
Cu           -3.622684705        -7.207622879         7.207622879
Cu           -3.612343035        -5.403091603         8.989814680
Cu           -1.810024357        -7.190554623         8.980543092
Cu           -1.809642088        -5.400319277         7.190519093
Cu           -3.599548892        -7.179135474        10.763880704
Cu           -3.551471255        -5.338891094        12.478479276
Cu           -1.782027745        -7.102504313        12.438814667
Cu           -1.783682440        -5.360204125        10.740515726
Cu           -3.577401362        -1.788909297       -12.560410195
Cu           -1.788909297        -3.577401362       -12.560410195
Cu           -3.574441183        -3.574441183       -10.752387323
Cu           -3.582413785        -1.791460993        -8.964961994
Cu           -1.791460993        -3.582413785        -8.964961994
Cu           -1.786210922        -1.786210922       -10.793007189
Cu           -3.606990176        -3.606990176        -7.192093734
Cu           -3.604176390        -1.806158545        -5.394255520
Cu           -1.806158545        -3.604176390        -5.394255520
Cu           -1.796418941        -1.796418941        -7.172958381
Cu           -3.605924396        -3.605924396        -3.605924396
Cu           -3.596700730        -1.803122923        -1.803122923
Cu           -1.803122923        -3.596700730        -1.803122923
Cu           -1.803122923        -1.803122923        -3.596700730
Cu           -3.600489565        -3.600489565        -0.000000000
Cu           -3.596700730        -1.803122923         1.803122923
Cu           -1.803122923        -3.596700730         1.803122923
Cu           -1.800140580        -1.800140580        -0.000000000
Cu           -3.605924396        -3.605924396         3.605924396
Cu           -3.604176390        -1.806158545         5.394255520
Cu           -1.806158545        -3.604176390         5.394255520
Cu           -1.803122923        -1.803122923         3.596700730
Cu           -3.606990176        -3.606990176         7.192093734
Cu           -3.582413785        -1.791460993         8.964961994
Cu           -1.791460993        -3.582413785         8.964961994
Cu           -1.796418941        -1.796418941         7.172958381
Cu           -3.574441183        -3.574441183        10.752387323
Cu           -3.577401362        -1.788909297        12.560410195
Cu           -1.788909297        -3.577401362        12.560410195
Cu           -1.786210922        -1.786210922        10.793007189
Cu           -3.577401362         1.788909297       -12.560410195
Cu           -1.790161561         0.000000000       -12.585498016
Cu           -3.568881939        -0.000000000       -10.781149800
Cu           -3.582413785         1.791460993        -8.964961994
Cu           -1.788039327         0.000000000        -8.978209264
Cu           -1.786210922         1.786210922       -10.793007189
Cu           -3.595995875        -0.000000000        -7.175866122
Cu           -3.604176390         1.806158545        -5.394255520
Cu           -1.801208054         0.000000000        -5.381757517
Cu           -1.796418941         1.796418941        -7.172958381
Cu           -3.600489565        -0.000000000        -3.600489565
Cu           -3.596700730         1.803122923        -1.803122923
Cu           -1.800140580        -0.000000000        -1.800140580
Cu           -1.803122923         1.803122923        -3.596700730
Cu           -3.590949741        -0.000000000        -0.000000000
Cu           -3.596700730         1.803122923         1.803122923
Cu           -1.800140580        -0.000000000         1.800140580
Cu           -1.800140580         1.800140580         0.000000000
Cu           -3.600489565        -0.000000000         3.600489565
Cu           -3.604176390         1.806158545         5.394255520
Cu           -1.801208054        -0.000000000         5.381757517
Cu           -1.803122923         1.803122923         3.596700730
Cu           -3.595995875        -0.000000000         7.175866122
Cu           -3.582413785         1.791460993         8.964961994
Cu           -1.788039327        -0.000000000         8.978209264
Cu           -1.796418941         1.796418941         7.172958381
Cu           -3.568881939        -0.000000000        10.781149800
Cu           -3.577401362         1.788909297        12.560410195
Cu           -1.790161561        -0.000000000        12.585498016
Cu           -1.786210922         1.786210922        10.793007189
Cu           -3.551471255         5.338891094       -12.478479276
Cu           -1.788909297         3.577401362       -12.560410195
Cu           -3.574441183         3.574441183       -10.752387323
Cu           -3.612343035         5.403091603        -8.989814680
Cu           -1.791460993         3.582413785        -8.964961994
Cu           -1.783682440         5.360204125       -10.740515726
Cu           -3.606990176         3.606990176        -7.192093734
Cu           -3.614189254         5.407611270        -5.407611270
Cu           -1.806158545         3.604176390        -5.394255520
Cu           -1.809642088         5.400319277        -7.190519093
Cu           -3.605924396         3.605924396        -3.605924396
Cu           -3.604176390         5.394255520        -1.806158545
Cu           -1.803122923         3.596700730        -1.803122923
Cu           -1.806158545         5.394255520        -3.604176390
Cu           -3.600489565         3.600489565        -0.000000000
Cu           -3.604176390         5.394255520         1.806158545
Cu           -1.803122923         3.596700730         1.803122923
Cu           -1.801208054         5.381757517         0.000000000
Cu           -3.605924396         3.605924396         3.605924396
Cu           -3.614189254         5.407611270         5.407611270
Cu           -1.806158545         3.604176390         5.394255520
Cu           -1.806158545         5.394255520         3.604176390
Cu           -3.606990176         3.606990176         7.192093734
Cu           -3.612343035         5.403091603         8.989814680
Cu           -1.791460993         3.582413785         8.964961994
Cu           -1.809642088         5.400319277         7.190519093
Cu           -3.574441183         3.574441183        10.752387323
Cu           -3.551471255         5.338891094        12.478479276
Cu           -1.788909297         3.577401362        12.560410195