201
energy_gulp=-633.58150979
Cu           -5.319621955        -5.319621955         0.000000000
Cu           -7.078956570        -1.756194740        -1.756194740
Cu           -5.371898422        -3.593521433        -1.813984542
Cu           -5.371898422        -1.813984542        -3.593521433
Cu           -7.029787340        -3.510870908         0.000000000
Cu           -7.078956570        -1.756194740         1.756194740
Cu           -5.371898422        -3.593521433         1.813984542
Cu           -5.324787476        -1.784021829         0.000000000
Cu           -5.371898422        -1.813984542         3.593521433
Cu           -5.319621955        -0.000000000        -5.319621955
Cu           -7.029787340         0.000000000        -3.510870908
Cu           -7.078956570         1.756194740        -1.756194740
Cu           -5.324787476        -0.000000000        -1.784021829
Cu           -5.371898422         1.813984542        -3.593521433
Cu           -7.130525603         0.000000000         0.000000000
Cu           -7.078956570         1.756194740         1.756194740
Cu           -5.324787476        -0.000000000         1.784021829
Cu           -5.324787476         1.784021829         0.000000000
Cu           -7.029787340        -0.000000000         3.510870908
Cu           -5.319621955        -0.000000000         5.319621955
Cu           -5.371898422         1.813984542         3.593521433
Cu           -5.371898422         3.593521433        -1.813984542
Cu           -7.029787340         3.510870908         0.000000000
Cu           -5.371898422         3.593521433         1.813984542
Cu           -5.319621955         5.319621955         0.000000000
Cu           -3.593521433        -5.371898422        -1.813984542
Cu           -1.756194740        -7.078956570        -1.756194740
Cu           -1.813984542        -5.371898422        -3.593521433
Cu           -3.510870908        -7.029787340        -0.000000000
Cu           -3.593521433        -5.371898422         1.813984542
Cu           -1.756194740        -7.078956570         1.756194740
Cu           -1.784021829        -5.324787476        -0.000000000
Cu           -1.813984542        -5.371898422         3.593521433
Cu           -3.593521433        -1.813984542        -5.371898422
Cu           -1.813984542        -3.593521433        -5.371898422
Cu           -1.756194740        -1.756194740        -7.078956570
Cu           -3.610783226        -3.610783226        -3.610783226
Cu           -3.589869663        -1.816260016        -1.816260016
Cu           -1.816260016        -3.589869663        -1.816260016
Cu           -1.816260016        -1.816260016        -3.589869663
Cu           -3.592560460        -3.592560460         0.000000000
Cu           -3.589869663        -1.816260016         1.816260016
Cu           -1.816260016        -3.589869663         1.816260016
Cu           -1.800010421        -1.800010421        -0.000000000
Cu           -3.610783226        -3.610783226         3.610783226
Cu           -3.593521433        -1.813984542         5.371898422
Cu           -1.813984542        -3.593521433         5.371898422
Cu           -1.816260016        -1.816260016         3.589869663
Cu           -1.756194740        -1.756194740         7.078956570
Cu           -3.510870908        -0.000000000        -7.029787340
Cu           -3.593521433         1.813984542        -5.371898422
Cu           -1.784021829        -0.000000000        -5.324787476
Cu           -1.756194740         1.756194740        -7.078956570
Cu           -3.592560460        -0.000000000        -3.592560460
Cu           -3.589869663         1.816260016        -1.816260016
Cu           -1.800010421        -0.000000000        -1.800010421
Cu           -1.816260016         1.816260016        -3.589869663
Cu           -3.550212065        -0.000000000         0.000000000
Cu           -3.589869663         1.816260016         1.816260016
Cu           -1.800010421        -0.000000000         1.800010421
Cu           -1.800010421         1.800010421        -0.000000000
Cu           -3.592560460        -0.000000000         3.592560460
Cu           -3.593521433         1.813984542         5.371898422
Cu           -1.784021829        -0.000000000         5.324787476
Cu           -1.816260016         1.816260016         3.589869663
Cu           -3.510870908        -0.000000000         7.029787340
Cu           -1.756194740         1.756194740         7.078956570
Cu           -1.813984542         3.593521433        -5.371898422
Cu           -3.610783226         3.610783226        -3.610783226
Cu           -3.593521433         5.371898422        -1.813984542
Cu           -1.816260016         3.589869663        -1.816260016
Cu           -1.813984542         5.371898422        -3.593521433
Cu           -3.592560460         3.592560460         0.000000000
Cu           -3.593521433         5.371898422         1.813984542
Cu           -1.816260016         3.589869663         1.816260016
Cu           -1.784021829         5.324787476        -0.000000000
Cu           -3.610783226         3.610783226         3.610783226
Cu           -1.813984542         3.593521433         5.371898422
Cu           -1.813984542         5.371898422         3.593521433
Cu           -1.756194740         7.078956570        -1.756194740
Cu           -3.510870908         7.029787340         0.000000000
Cu           -1.756194740         7.078956570         1.756194740
Cu           -0.000000000        -5.319621955        -5.319621955
Cu           -0.000000000        -7.029787340        -3.510870908
Cu           -0.000000000        -5.324787476        -1.784021829
Cu            1.756194740        -7.078956570        -1.756194740
Cu            1.813984542        -5.371898422        -3.593521433
Cu           -0.000000000        -7.130525603        -0.000000000
Cu           -0.000000000        -5.324787476         1.784021829
Cu            1.756194740        -7.078956570         1.756194740
Cu            1.784021829        -5.324787476        -0.000000000
Cu           -0.000000000        -7.029787340         3.510870908
Cu           -0.000000000        -5.319621955         5.319621955
Cu            1.813984542        -5.371898422         3.593521433
Cu           -0.000000000        -3.510870908        -7.029787340
Cu           -0.000000000        -1.784021829        -5.324787476
Cu            1.813984542        -3.593521433        -5.371898422
Cu            1.756194740        -1.756194740        -7.078956570
Cu           -0.000000000        -3.592560460        -3.592560460
Cu           -0.000000000        -1.800010421        -1.800010421
Cu            1.816260016        -3.589869663        -1.816260016
Cu            1.816260016        -1.816260016        -3.589869663
Cu           -0.000000000        -3.550212065        -0.000000000
Cu            0.000000000        -1.800010421         1.800010421
Cu            1.816260016        -3.589869663         1.816260016
Cu            1.800010421        -1.800010421        -0.000000000
Cu            0.000000000        -3.592560460         3.592560460
Cu            0.000000000        -1.784021829         5.324787476
Cu            1.813984542        -3.593521433         5.371898422
Cu            1.816260016        -1.816260016         3.589869663
Cu            0.000000000        -3.510870908         7.029787340
Cu            1.756194740        -1.756194740         7.078956570
Cu           -0.000000000        -0.000000000        -7.130525603
Cu           -0.000000000         1.784021829        -5.324787476
Cu            1.784021829        -0.000000000        -5.324787476
Cu            1.756194740         1.756194740        -7.078956570
Cu           -0.000000000        -0.000000000        -3.550212065
Cu            0.000000000         1.800010421        -1.800010421
Cu            1.800010421        -0.000000000        -1.800010421
Cu            1.816260016         1.816260016        -3.589869663
Cu            0.000000000         0.000000000         0.000000000
Cu            0.000000000         1.800010421         1.800010421
Cu            1.800010421        -0.000000000         1.800010421
Cu            1.800010421         1.800010421        -0.000000000
Cu            0.000000000        -0.000000000         3.550212065
Cu            0.000000000         1.784021829         5.324787476
Cu            1.784021829        -0.000000000         5.324787476
Cu            1.816260016         1.816260016         3.589869663
Cu            0.000000000        -0.000000000         7.130525603
Cu            1.756194740         1.756194740         7.078956570
Cu           -0.000000000         3.510870908        -7.029787340
Cu            0.000000000         5.319621955        -5.319621955
Cu            1.813984542         3.593521433        -5.371898422
Cu            0.000000000         3.592560460        -3.592560460
Cu            0.000000000         5.324787476        -1.784021829
Cu            1.816260016         3.589869663        -1.816260016
Cu            1.813984542         5.371898422        -3.593521433
Cu            0.000000000         3.550212065        -0.000000000
Cu            0.000000000         5.324787476         1.784021829
Cu            1.816260016         3.589869663         1.816260016
Cu            1.784021829         5.324787476        -0.000000000
Cu            0.000000000         3.592560460         3.592560460
Cu            0.000000000         5.319621955         5.319621955
Cu            1.813984542         3.593521433         5.371898422
Cu            1.813984542         5.371898422         3.593521433
Cu            0.000000000         3.510870908         7.029787340
Cu            0.000000000         7.029787340        -3.510870908
Cu            1.756194740         7.078956570        -1.756194740
Cu            0.000000000         7.130525603        -0.000000000
Cu            1.756194740         7.078956570         1.756194740
Cu            0.000000000         7.029787340         3.510870908
Cu            3.593521433        -5.371898422        -1.813984542
Cu            3.510870908        -7.029787340        -0.000000000
Cu            3.593521433        -5.371898422         1.813984542
Cu            5.319621955        -5.319621955        -0.000000000
Cu            3.593521433        -1.813984542        -5.371898422
Cu            3.610783226        -3.610783226        -3.610783226
Cu            3.589869663        -1.816260016        -1.816260016
Cu            5.371898422        -3.593521433        -1.813984542
Cu            5.371898422        -1.813984542        -3.593521433
Cu            3.592560460        -3.592560460        -0.000000000
Cu            3.589869663        -1.816260016         1.816260016
Cu            5.371898422        -3.593521433         1.813984542
Cu            5.324787476        -1.784021829        -0.000000000
Cu            3.610783226        -3.610783226         3.610783226
Cu            3.593521433        -1.813984542         5.371898422
Cu            5.371898422        -1.813984542         3.593521433
Cu            3.510870908        -0.000000000        -7.029787340
Cu            3.593521433         1.813984542        -5.371898422
Cu            5.319621955        -0.000000000        -5.319621955
Cu            3.592560460        -0.000000000        -3.592560460
Cu            3.589869663         1.816260016        -1.816260016
Cu            5.324787476        -0.000000000        -1.784021829
Cu            5.371898422         1.813984542        -3.593521433
Cu            3.550212065        -0.000000000        -0.000000000
Cu            3.589869663         1.816260016         1.816260016
Cu            5.324787476        -0.000000000         1.784021829
Cu            5.324787476         1.784021829        -0.000000000
Cu            3.592560460        -0.000000000         3.592560460
Cu            3.593521433         1.813984542         5.371898422
Cu            5.319621955        -0.000000000         5.319621955
Cu            5.371898422         1.813984542         3.593521433
Cu            3.510870908        -0.000000000         7.029787340
Cu            3.610783226         3.610783226        -3.610783226
Cu            3.593521433         5.371898422        -1.813984542
Cu            5.371898422         3.593521433        -1.813984542
Cu            3.592560460         3.592560460        -0.000000000
Cu            3.593521433         5.371898422         1.813984542
Cu            5.371898422         3.593521433         1.813984542
Cu            5.319621955         5.319621955        -0.000000000
Cu            3.610783226         3.610783226         3.610783226
Cu            3.510870908         7.029787340        -0.000000000
Cu            7.078956570        -1.756194740        -1.756194740
Cu            7.029787340        -3.510870908        -0.000000000
Cu            7.078956570        -1.756194740         1.756194740
Cu            7.029787340        -0.000000000        -3.510870908
Cu            7.078956570         1.756194740        -1.756194740
Cu            7.130525603        -0.000000000        -0.000000000
Cu            7.078956570         1.756194740         1.756194740
Cu            7.029787340        -0.000000000         3.510870908
Cu            7.029787340         3.510870908        -0.000000000