225
energy_gulp=-710.60364364
Cu           -8.757141113        -1.735124829         0.000000000
Cu           -8.757141113         0.000000000        -1.735124829
Cu           -8.757141113         0.000000000         1.735124829
Cu           -8.757141113         1.735124829        -0.000000000
Cu           -5.325897933        -5.325897933         0.000000000
Cu           -7.107284932        -1.818046795        -1.818046795
Cu           -5.372384737        -3.608170776        -1.816158008
Cu           -5.372384737        -1.816158008        -3.608170776
Cu           -7.079136349        -3.550270211         0.000000000
Cu           -7.107284932        -1.818046795         1.818046795
Cu           -5.372384737        -3.608170776         1.816158008
Cu           -5.347029526        -1.816912380         0.000000000
Cu           -5.372384737        -1.816158008         3.608170776
Cu           -5.325897933         0.000000000        -5.325897933
Cu           -7.079136349         0.000000000        -3.550270211
Cu           -7.107284932         1.818046795        -1.818046795
Cu           -5.347029526         0.000000000        -1.816912380
Cu           -5.372384737         1.816158008        -3.608170776
Cu           -7.040320126         0.000000000        -0.000000000
Cu           -7.107284932         1.818046795         1.818046795
Cu           -5.347029526         0.000000000         1.816912380
Cu           -5.347029526         1.816912380        -0.000000000
Cu           -7.079136349         0.000000000         3.550270211
Cu           -5.325897933         0.000000000         5.325897933
Cu           -5.372384737         1.816158008         3.608170776
Cu           -5.372384737         3.608170776        -1.816158008
Cu           -7.079136349         3.550270212        -0.000000000
Cu           -5.372384737         3.608170776         1.816158008
Cu           -5.325897933         5.325897933        -0.000000000
Cu           -1.735124829        -8.757141113         0.000000000
Cu           -3.608170776        -5.372384737        -1.816158008
Cu           -1.818046795        -7.107284932        -1.818046795
Cu           -1.816158008        -5.372384737        -3.608170776
Cu           -3.550270212        -7.079136349         0.000000000
Cu           -3.608170776        -5.372384737         1.816158008
Cu           -1.818046795        -7.107284932         1.818046795
Cu           -1.816912380        -5.347029526         0.000000000
Cu           -1.816158008        -5.372384737         3.608170776
Cu           -3.608170776        -1.816158008        -5.372384737
Cu           -1.816158008        -3.608170776        -5.372384737
Cu           -1.818046795        -1.818046795        -7.107284932
Cu           -3.608366085        -3.608366085        -3.608366085
Cu           -3.596002531        -1.814151403        -1.814151403
Cu           -1.814151403        -3.596002531        -1.814151403
Cu           -1.814151403        -1.814151403        -3.596002531
Cu           -3.593293522        -3.593293522         0.000000000
Cu           -3.596002531        -1.814151403         1.814151403
Cu           -1.814151403        -3.596002531         1.814151403
Cu           -1.800274449        -1.800274449         0.000000000
Cu           -3.608366085        -3.608366085         3.608366085
Cu           -3.608170776        -1.816158008         5.372384737
Cu           -1.816158008        -3.608170776         5.372384737
Cu           -1.814151403        -1.814151403         3.596002531
Cu           -1.818046795        -1.818046795         7.107284932
Cu           -1.735124829        -0.000000000        -8.757141113
Cu           -3.550270211         0.000000000        -7.079136349
Cu           -3.608170776         1.816158008        -5.372384737
Cu           -1.816912380        -0.000000000        -5.347029526
Cu           -1.818046795         1.818046795        -7.107284932
Cu           -3.593293522         0.000000000        -3.593293522
Cu           -3.596002531         1.814151403        -1.814151403
Cu           -1.800274449         0.000000000        -1.800274449
Cu           -1.814151403         1.814151403        -3.596002531
Cu           -3.581201715         0.000000000        -0.000000000
Cu           -3.596002531         1.814151403         1.814151403
Cu           -1.800274449         0.000000000         1.800274449
Cu           -1.800274449         1.800274449        -0.000000000
Cu           -3.593293522         0.000000000         3.593293522
Cu           -3.608170776         1.816158008         5.372384737
Cu           -1.816912380         0.000000000         5.347029526
Cu           -1.814151403         1.814151403         3.596002531
Cu           -3.550270211         0.000000000         7.079136349
Cu           -1.735124829         0.000000000         8.757141113
Cu           -1.818046795         1.818046795         7.107284932
Cu           -1.816158008         3.608170776        -5.372384737
Cu           -3.608366085         3.608366085        -3.608366085
Cu           -3.608170776         5.372384737        -1.816158008
Cu           -1.814151403         3.596002531        -1.814151403
Cu           -1.816158008         5.372384737        -3.608170776
Cu           -3.593293522         3.593293522        -0.000000000
Cu           -3.608170776         5.372384737         1.816158008
Cu           -1.814151403         3.596002531         1.814151403
Cu           -1.816912380         5.347029526        -0.000000000
Cu           -3.608366085         3.608366085         3.608366085
Cu           -1.816158008         3.608170776         5.372384737
Cu           -1.816158008         5.372384737         3.608170776
Cu           -1.818046795         7.107284932        -1.818046795
Cu           -3.550270211         7.079136349        -0.000000000
Cu           -1.818046795         7.107284932         1.818046795
Cu           -1.735124829         8.757141113        -0.000000000
Cu           -0.000000000        -8.757141113        -1.735124829
Cu           -0.000000000        -8.757141113         1.735124829
Cu            1.735124829        -8.757141113         0.000000000
Cu           -0.000000000        -5.325897933        -5.325897933
Cu           -0.000000000        -7.079136349        -3.550270211
Cu           -0.000000000        -5.347029526        -1.816912380
Cu            1.818046795        -7.107284932        -1.818046795
Cu            1.816158008        -5.372384737        -3.608170776
Cu           -0.000000000        -7.040320126         0.000000000
Cu           -0.000000000        -5.347029526         1.816912380
Cu            1.818046795        -7.107284932         1.818046795
Cu            1.816912380        -5.347029526         0.000000000
Cu           -0.000000000        -7.079136349         3.550270211
Cu           -0.000000000        -5.325897933         5.325897933
Cu            1.816158008        -5.372384737         3.608170776
Cu           -0.000000000        -1.735124829        -8.757141113
Cu           -0.000000000        -3.550270211        -7.079136349
Cu           -0.000000000        -1.816912380        -5.347029526
Cu            1.816158008        -3.608170776        -5.372384737
Cu            1.818046795        -1.818046795        -7.107284932
Cu           -0.000000000        -3.593293522        -3.593293522
Cu           -0.000000000        -1.800274449        -1.800274449
Cu            1.814151403        -3.596002531        -1.814151403
Cu            1.814151403        -1.814151403        -3.596002531
Cu           -0.000000000        -3.581201715         0.000000000
Cu           -0.000000000        -1.800274449         1.800274449
Cu            1.814151403        -3.596002531         1.814151403
Cu            1.800274449        -1.800274449         0.000000000
Cu           -0.000000000        -3.593293522         3.593293522
Cu           -0.000000000        -1.816912380         5.347029526
Cu            1.816158008        -3.608170776         5.372384737
Cu            1.814151403        -1.814151403         3.596002531
Cu           -0.000000000        -3.550270211         7.079136349
Cu           -0.000000000        -1.735124829         8.757141113
Cu            1.818046795        -1.818046795         7.107284932
Cu            0.000000000         1.735124829        -8.757141113
Cu            1.735124829        -0.000000000        -8.757141113
Cu            0.000000000        -0.000000000        -7.040320126
Cu            0.000000000         1.816912380        -5.347029526
Cu            1.816912380        -0.000000000        -5.347029526
Cu            1.818046795         1.818046795        -7.107284932
Cu            0.000000000        -0.000000000        -3.581201715
Cu            0.000000000         1.800274449        -1.800274449
Cu            1.800274449        -0.000000000        -1.800274449
Cu            1.814151403         1.814151403        -3.596002531
Cu            0.000000000         0.000000000         0.000000000
Cu            0.000000000         1.800274449         1.800274449
Cu            1.800274449        -0.000000000         1.800274449
Cu            1.800274449         1.800274449        -0.000000000
Cu           -0.000000000         0.000000000         3.581201715
Cu            0.000000000         1.816912380         5.347029526
Cu            1.816912380         0.000000000         5.347029526
Cu            1.814151403         1.814151403         3.596002531
Cu           -0.000000000         0.000000000         7.040320126
Cu            0.000000000         1.735124829         8.757141113
Cu            1.735124829         0.000000000         8.757141113
Cu            1.818046795         1.818046795         7.107284932
Cu            0.000000000         3.550270211        -7.079136349
Cu            0.000000000         5.325897933        -5.325897933
Cu            1.816158008         3.608170776        -5.372384737
Cu            0.000000000         3.593293522        -3.593293522
Cu            0.000000000         5.347029526        -1.816912380
Cu            1.814151403         3.596002531        -1.814151403
Cu            1.816158008         5.372384737        -3.608170776
Cu            0.000000000         3.581201715        -0.000000000
Cu            0.000000000         5.347029526         1.816912380
Cu            1.814151403         3.596002531         1.814151403
Cu            1.816912380         5.347029526        -0.000000000
Cu            0.000000000         3.593293522         3.593293522
Cu            0.000000000         5.325897933         5.325897933
Cu            1.816158008         3.608170776         5.372384737
Cu            1.816158008         5.372384737         3.608170776
Cu            0.000000000         3.550270211         7.079136349
Cu            0.000000000         7.079136349        -3.550270211
Cu            0.000000000         8.757141113        -1.735124829
Cu            1.818046795         7.107284932        -1.818046795
Cu            0.000000000         7.040320126        -0.000000000
Cu            0.000000000         8.757141113         1.735124829
Cu            1.818046795         7.107284932         1.818046795
Cu            1.735124829         8.757141113        -0.000000000
Cu            0.000000000         7.079136349         3.550270211
Cu            3.608170776        -5.372384737        -1.816158008
Cu            3.550270211        -7.079136349         0.000000000
Cu            3.608170776        -5.372384737         1.816158008
Cu            5.325897933        -5.325897933         0.000000000
Cu            3.608170776        -1.816158008        -5.372384737
Cu            3.608366085        -3.608366085        -3.608366085
Cu            3.596002531        -1.814151403        -1.814151403
Cu            5.372384737        -3.608170776        -1.816158008
Cu            5.372384737        -1.816158008        -3.608170776
Cu            3.593293522        -3.593293522         0.000000000
Cu            3.596002531        -1.814151403         1.814151403
Cu            5.372384737        -3.608170776         1.816158008
Cu            5.347029526        -1.816912380         0.000000000
Cu            3.608366085        -3.608366085         3.608366085
Cu            3.608170776        -1.816158008         5.372384737
Cu            5.372384737        -1.816158008         3.608170776
Cu            3.550270211        -0.000000000        -7.079136349
Cu            3.608170776         1.816158008        -5.372384737
Cu            5.325897933        -0.000000000        -5.325897933
Cu            3.593293522        -0.000000000        -3.593293522
Cu            3.596002531         1.814151403        -1.814151403
Cu            5.347029526        -0.000000000        -1.816912380
Cu            5.372384737         1.816158008        -3.608170776
Cu            3.581201715        -0.000000000         0.000000000
Cu            3.596002531         1.814151403         1.814151403
Cu            5.347029526        -0.000000000         1.816912380
Cu            5.347029526         1.816912380        -0.000000000
Cu            3.593293522        -0.000000000         3.593293522
Cu            3.608170776         1.816158008         5.372384737
Cu            5.325897933        -0.000000000         5.325897933
Cu            5.372384737         1.816158008         3.608170776
Cu            3.550270211        -0.000000000         7.079136349
Cu            3.608366085         3.608366085        -3.608366085
Cu            3.608170776         5.372384737        -1.816158008
Cu            5.372384737         3.608170776        -1.816158008
Cu            3.593293522         3.593293522        -0.000000000
Cu            3.608170776         5.372384737         1.816158008
Cu            5.372384737         3.608170776         1.816158008
Cu            5.325897933         5.325897933        -0.000000000
Cu            3.608366085         3.608366085         3.608366085
Cu            3.550270212         7.079136349        -0.000000000
Cu            7.107284932        -1.818046795        -1.818046795
Cu            7.079136349        -3.550270212         0.000000000
Cu            7.107284932        -1.818046795         1.818046795
Cu            8.757141113        -1.735124829         0.000000000
Cu            7.079136349        -0.000000000        -3.550270211
Cu            7.107284932         1.818046795        -1.818046795
Cu            8.757141113        -0.000000000        -1.735124829
Cu            7.040320126        -0.000000000         0.000000000
Cu            7.107284932         1.818046795         1.818046795
Cu            8.757141113        -0.000000000         1.735124829
Cu            8.757141113         1.735124829        -0.000000000
Cu            7.079136349        -0.000000000         3.550270211
Cu            7.079136349         3.550270211        -0.000000000