369
energy_gulp=-1184.05679367
Cu           -8.839395435        -3.523179345        -1.775890264
Cu           -8.839395435        -1.775890264        -3.523179345
Cu           -8.839395435        -3.523179345         1.775890264
Cu           -8.928631524        -1.775324744        -0.000000000
Cu           -8.839395435        -1.775890264         3.523179345
Cu           -8.928631524        -0.000000000        -1.775324744
Cu           -8.839395435         1.775890264        -3.523179345
Cu           -8.928631524        -0.000000000         1.775324744
Cu           -8.928631524         1.775324744        -0.000000000
Cu           -8.839395435         1.775890264         3.523179345
Cu           -8.839395435         3.523179345        -1.775890264
Cu           -8.839395435         3.523179345         1.775890264
Cu           -7.131295182        -5.348654003        -1.793459165
Cu           -5.348654003        -7.131295182        -1.793459165
Cu           -5.398451120        -5.398451120        -3.605667649
Cu           -7.131295182        -5.348654003         1.793459165
Cu           -5.348654003        -7.131295182         1.793459165
Cu           -5.403746864        -5.403746864        -0.000000000
Cu           -5.398451120        -5.398451120         3.605667649
Cu           -7.131295182        -1.793459165        -5.348654003
Cu           -5.398451120        -3.605667649        -5.398451120
Cu           -5.348654003        -1.793459165        -7.131295182
Cu           -7.161525340        -3.598253188        -3.598253188
Cu           -7.127653674        -1.779932840        -1.779932840
Cu           -5.384327396        -3.604300265        -1.808791981
Cu           -5.384327396        -1.808791981        -3.604300265
Cu           -7.157706875        -3.599633613        -0.000000000
Cu           -7.127653674        -1.779932840         1.779932840
Cu           -5.384327396        -3.604300265         1.808791981
Cu           -5.357717523        -1.802717264        -0.000000000
Cu           -7.161525340        -3.598253188         3.598253188
Cu           -7.131295182        -1.793459165         5.348654003
Cu           -5.398451120        -3.605667649         5.398451120
Cu           -5.384327396        -1.808791981         3.604300265
Cu           -5.348654003        -1.793459165         7.131295182
Cu           -7.131295182         1.793459165        -5.348654003
Cu           -5.403746864        -0.000000000        -5.403746864
Cu           -5.348654003         1.793459165        -7.131295182
Cu           -7.157706875        -0.000000000        -3.599633613
Cu           -7.127653674         1.779932840        -1.779932840
Cu           -5.357717523        -0.000000000        -1.802717264
Cu           -5.384327396         1.808791981        -3.604300265
Cu           -7.150741935        -0.000000000        -0.000000000
Cu           -7.127653674         1.779932840         1.779932840
Cu           -5.357717523        -0.000000000         1.802717264
Cu           -5.357717523         1.802717264        -0.000000000
Cu           -7.157706875        -0.000000000         3.599633613
Cu           -7.131295182         1.793459165         5.348654003
Cu           -5.403746864        -0.000000000         5.403746864
Cu           -5.384327396         1.808791981         3.604300265
Cu           -5.348654003         1.793459165         7.131295182
Cu           -5.398451120         3.605667649        -5.398451120
Cu           -7.161525340         3.598253188        -3.598253188
Cu           -7.131295182         5.348654003        -1.793459165
Cu           -5.384327396         3.604300265        -1.808791981
Cu           -5.398451120         5.398451120        -3.605667649
Cu           -7.157706875         3.599633613        -0.000000000
Cu           -7.131295182         5.348654003         1.793459165
Cu           -5.384327396         3.604300265         1.808791981
Cu           -5.403746864         5.403746864        -0.000000000
Cu           -7.161525340         3.598253188         3.598253188
Cu           -5.398451120         3.605667649         5.398451120
Cu           -5.398451120         5.398451120         3.605667649
Cu           -5.348654003         7.131295182        -1.793459165
Cu           -5.348654003         7.131295182         1.793459165
Cu           -3.523179345        -8.839395435        -1.775890264
Cu           -1.775890264        -8.839395435        -3.523179345
Cu           -3.523179345        -8.839395435         1.775890264
Cu           -1.775324744        -8.928631524        -0.000000000
Cu           -1.775890264        -8.839395435         3.523179345
Cu           -3.605667649        -5.398451120        -5.398451120
Cu           -1.793459165        -7.131295182        -5.348654003
Cu           -1.793459165        -5.348654003        -7.131295182
Cu           -3.598253188        -7.161525340        -3.598253188
Cu           -3.604300265        -5.384327396        -1.808791981
Cu           -1.779932840        -7.127653674        -1.779932840
Cu           -1.808791981        -5.384327396        -3.604300265
Cu           -3.599633613        -7.157706875        -0.000000000
Cu           -3.604300265        -5.384327396         1.808791981
Cu           -1.779932840        -7.127653674         1.779932840
Cu           -1.802717264        -5.357717523        -0.000000000
Cu           -3.598253188        -7.161525340         3.598253188
Cu           -3.605667649        -5.398451120         5.398451120
Cu           -1.793459165        -7.131295182         5.348654003
Cu           -1.808791981        -5.384327396         3.604300265
Cu           -1.793459165        -5.348654003         7.131295182
Cu           -3.523179345        -1.775890264        -8.839395435
Cu           -1.775890264        -3.523179345        -8.839395435
Cu           -3.598253188        -3.598253188        -7.161525340
Cu           -3.604300265        -1.808791981        -5.384327396
Cu           -1.808791981        -3.604300265        -5.384327396
Cu           -1.779932840        -1.779932840        -7.127653674
Cu           -3.613705013        -3.613705013        -3.613705013
Cu           -3.590088299        -1.805831315        -1.805831315
Cu           -1.805831315        -3.590088299        -1.805831315
Cu           -1.805831315        -1.805831315        -3.590088299
Cu           -3.601763749        -3.601763749        -0.000000000
Cu           -3.590088299        -1.805831315         1.805831315
Cu           -1.805831315        -3.590088299         1.805831315
Cu           -1.799614591        -1.799614591        -0.000000000
Cu           -3.613705013        -3.613705013         3.613705013
Cu           -3.604300265        -1.808791981         5.384327396
Cu           -1.808791981        -3.604300265         5.384327396
Cu           -1.805831315        -1.805831315         3.590088299
Cu           -3.598253188        -3.598253188         7.161525340
Cu           -3.523179345        -1.775890264         8.839395435
Cu           -1.775890264        -3.523179345         8.839395435
Cu           -1.779932840        -1.779932840         7.127653674
Cu           -3.523179345         1.775890264        -8.839395435
Cu           -1.775324744        -0.000000000        -8.928631524
Cu           -3.599633613        -0.000000000        -7.157706875
Cu           -3.604300265         1.808791981        -5.384327396
Cu           -1.802717264        -0.000000000        -5.357717523
Cu           -1.779932840         1.779932840        -7.127653674
Cu           -3.601763749        -0.000000000        -3.601763749
Cu           -3.590088299         1.805831315        -1.805831315
Cu           -1.799614591        -0.000000000        -1.799614591
Cu           -1.805831315         1.805831315        -3.590088299
Cu           -3.578873417        -0.000000000        -0.000000000
Cu           -3.590088299         1.805831315         1.805831315
Cu           -1.799614591        -0.000000000         1.799614591
Cu           -1.799614591         1.799614591        -0.000000000
Cu           -3.601763749        -0.000000000         3.601763749
Cu           -3.604300265         1.808791981         5.384327396
Cu           -1.802717264        -0.000000000         5.357717523
Cu           -1.805831315         1.805831315         3.590088299
Cu           -3.599633613        -0.000000000         7.157706875
Cu           -3.523179345         1.775890264         8.839395435
Cu           -1.775324744        -0.000000000         8.928631524
Cu           -1.779932840         1.779932840         7.127653674
Cu           -1.775890264         3.523179345        -8.839395435
Cu           -3.598253188         3.598253188        -7.161525340
Cu           -3.605667649         5.398451120        -5.398451120
Cu           -1.808791981         3.604300265        -5.384327396
Cu           -1.793459165         5.348654003        -7.131295182
Cu           -3.613705013         3.613705013        -3.613705013
Cu           -3.604300265         5.384327396        -1.808791981
Cu           -1.805831315         3.590088299        -1.805831315
Cu           -1.808791981         5.384327396        -3.604300265
Cu           -3.601763749         3.601763749        -0.000000000
Cu           -3.604300265         5.384327396         1.808791981
Cu           -1.805831315         3.590088299         1.805831315
Cu           -1.802717264         5.357717523        -0.000000000
Cu           -3.613705013         3.613705013         3.613705013
Cu           -3.605667649         5.398451120         5.398451120
Cu           -1.808791981         3.604300265         5.384327396
Cu           -1.808791981         5.384327396         3.604300265
Cu           -3.598253188         3.598253188         7.161525340
Cu           -1.775890264         3.523179345         8.839395435
Cu           -1.793459165         5.348654003         7.131295182
Cu           -1.793459165         7.131295182        -5.348654003
Cu           -3.598253188         7.161525340        -3.598253188
Cu           -3.523179345         8.839395435        -1.775890264
Cu           -1.779932840         7.127653674        -1.779932840
Cu           -1.775890264         8.839395435        -3.523179345
Cu           -3.599633613         7.157706875        -0.000000000
Cu           -3.523179345         8.839395435         1.775890264
Cu           -1.779932840         7.127653674         1.779932840
Cu           -1.775324744         8.928631524         0.000000000
Cu           -3.598253188         7.161525340         3.598253188
Cu           -1.793459165         7.131295182         5.348654003
Cu           -1.775890264         8.839395435         3.523179345
Cu            0.000000000        -8.928631524        -1.775324744
Cu            1.775890264        -8.839395435        -3.523179345
Cu            0.000000000        -8.928631524         1.775324744
Cu            1.775324744        -8.928631524        -0.000000000
Cu            1.775890264        -8.839395435         3.523179345
Cu            0.000000000        -5.403746864        -5.403746864
Cu            1.793459165        -7.131295182        -5.348654003
Cu            1.793459165        -5.348654003        -7.131295182
Cu            0.000000000        -7.157706875        -3.599633613
Cu            0.000000000        -5.357717523        -1.802717264
Cu            1.779932840        -7.127653674        -1.779932840
Cu            1.808791981        -5.384327396        -3.604300265
Cu            0.000000000        -7.150741935        -0.000000000
Cu           -0.000000000        -5.357717523         1.802717264
Cu            1.779932840        -7.127653674         1.779932840
Cu            1.802717264        -5.357717523        -0.000000000
Cu            0.000000000        -7.157706875         3.599633613
Cu           -0.000000000        -5.403746864         5.403746864
Cu            1.793459165        -7.131295182         5.348654003
Cu            1.808791981        -5.384327396         3.604300265
Cu            1.793459165        -5.348654003         7.131295182
Cu           -0.000000000        -1.775324744        -8.928631524
Cu            1.775890264        -3.523179345        -8.839395435
Cu           -0.000000000        -3.599633613        -7.157706875
Cu           -0.000000000        -1.802717264        -5.357717523
Cu            1.808791981        -3.604300265        -5.384327396
Cu            1.779932840        -1.779932840        -7.127653674
Cu           -0.000000000        -3.601763749        -3.601763749
Cu           -0.000000000        -1.799614591        -1.799614591
Cu            1.805831315        -3.590088299        -1.805831315
Cu            1.805831315        -1.805831315        -3.590088299
Cu           -0.000000000        -3.578873417        -0.000000000
Cu           -0.000000000        -1.799614591         1.799614591
Cu            1.805831315        -3.590088299         1.805831315
Cu            1.799614591        -1.799614591        -0.000000000
Cu           -0.000000000        -3.601763749         3.601763749
Cu           -0.000000000        -1.802717264         5.357717523
Cu            1.808791981        -3.604300265         5.384327396
Cu            1.805831315        -1.805831315         3.590088299
Cu           -0.000000000        -3.599633613         7.157706875
Cu           -0.000000000        -1.775324744         8.928631524
Cu            1.775890264        -3.523179345         8.839395435
Cu            1.779932840        -1.779932840         7.127653674
Cu           -0.000000000         1.775324744        -8.928631524
Cu            1.775324744        -0.000000000        -8.928631524
Cu           -0.000000000        -0.000000000        -7.150741935
Cu           -0.000000000         1.802717264        -5.357717523
Cu            1.802717264        -0.000000000        -5.357717523
Cu            1.779932840         1.779932840        -7.127653674
Cu           -0.000000000        -0.000000000        -3.578873417
Cu           -0.000000000         1.799614591        -1.799614591
Cu            1.799614591        -0.000000000        -1.799614591
Cu            1.805831315         1.805831315        -3.590088299
Cu            0.000000000         0.000000000         0.000000000
Cu           -0.000000000         1.799614591         1.799614591
Cu            1.799614591        -0.000000000         1.799614591
Cu            1.799614591         1.799614591        -0.000000000
Cu           -0.000000000        -0.000000000         3.578873417
Cu           -0.000000000         1.802717264         5.357717523
Cu            1.802717264        -0.000000000         5.357717523
Cu            1.805831315         1.805831315         3.590088299
Cu           -0.000000000        -0.000000000         7.150741935
Cu           -0.000000000         1.775324744         8.928631524
Cu            1.775324744        -0.000000000         8.928631524
Cu            1.779932840         1.779932840         7.127653674
Cu            1.775890264         3.523179345        -8.839395435
Cu           -0.000000000         3.599633613        -7.157706875
Cu           -0.000000000         5.403746864        -5.403746864
Cu            1.808791981         3.604300265        -5.384327396
Cu            1.793459165         5.348654003        -7.131295182
Cu           -0.000000000         3.601763749        -3.601763749
Cu           -0.000000000         5.357717523        -1.802717264
Cu            1.805831315         3.590088299        -1.805831315
Cu            1.808791981         5.384327396        -3.604300265
Cu           -0.000000000         3.578873417        -0.000000000
Cu           -0.000000000         5.357717523         1.802717264
Cu            1.805831315         3.590088299         1.805831315
Cu            1.802717264         5.357717523        -0.000000000
Cu           -0.000000000         3.601763749         3.601763749
Cu           -0.000000000         5.403746864         5.403746864
Cu            1.808791981         3.604300265         5.384327396
Cu            1.808791981         5.384327396         3.604300265
Cu           -0.000000000         3.599633613         7.157706875
Cu            1.775890264         3.523179345         8.839395435
Cu            1.793459165         5.348654003         7.131295182
Cu            1.793459165         7.131295182        -5.348654003
Cu           -0.000000000         7.157706875        -3.599633613
Cu           -0.000000000         8.928631524        -1.775324744
Cu            1.779932840         7.127653674        -1.779932840
Cu            1.775890264         8.839395435        -3.523179345
Cu           -0.000000000         7.150741935        -0.000000000
Cu           -0.000000000         8.928631524         1.775324744
Cu            1.779932840         7.127653674         1.779932840
Cu            1.775324744         8.928631524         0.000000000
Cu           -0.000000000         7.157706875         3.599633613
Cu            1.793459165         7.131295182         5.348654003
Cu            1.775890264         8.839395435         3.523179345
Cu            3.523179345        -8.839395435        -1.775890264
Cu            3.523179345        -8.839395435         1.775890264
Cu            3.605667649        -5.398451120        -5.398451120
Cu            3.598253188        -7.161525340        -3.598253188
Cu            3.604300265        -5.384327396        -1.808791981
Cu            5.348654003        -7.131295182        -1.793459165
Cu            5.398451120        -5.398451120        -3.605667649
Cu            3.599633613        -7.157706875        -0.000000000
Cu            3.604300265        -5.384327396         1.808791981
Cu            5.348654003        -7.131295182         1.793459165
Cu            5.403746864        -5.403746864        -0.000000000
Cu            3.598253188        -7.161525340         3.598253188
Cu            3.605667649        -5.398451120         5.398451120
Cu            5.398451120        -5.398451120         3.605667649
Cu            3.523179345        -1.775890264        -8.839395435
Cu            3.598253188        -3.598253188        -7.161525340
Cu            3.604300265        -1.808791981        -5.384327396
Cu            5.398451120        -3.605667649        -5.398451120
Cu            5.348654003        -1.793459165        -7.131295182
Cu            3.613705013        -3.613705013        -3.613705013
Cu            3.590088299        -1.805831315        -1.805831315
Cu            5.384327396        -3.604300265        -1.808791981
Cu            5.384327396        -1.808791981        -3.604300265
Cu            3.601763749        -3.601763749        -0.000000000
Cu            3.590088299        -1.805831315         1.805831315
Cu            5.384327396        -3.604300265         1.808791981
Cu            5.357717523        -1.802717264        -0.000000000
Cu            3.613705013        -3.613705013         3.613705013
Cu            3.604300265        -1.808791981         5.384327396
Cu            5.398451120        -3.605667649         5.398451120
Cu            5.384327396        -1.808791981         3.604300265
Cu            3.598253188        -3.598253188         7.161525340
Cu            3.523179345        -1.775890264         8.839395435
Cu            5.348654003        -1.793459165         7.131295182
Cu            3.523179345         1.775890264        -8.839395435
Cu            3.599633613        -0.000000000        -7.157706875
Cu            3.604300265         1.808791981        -5.384327396
Cu            5.403746864        -0.000000000        -5.403746864
Cu            5.348654003         1.793459165        -7.131295182
Cu            3.601763749        -0.000000000        -3.601763749
Cu            3.590088299         1.805831315        -1.805831315
Cu            5.357717523        -0.000000000        -1.802717264
Cu            5.384327396         1.808791981        -3.604300265
Cu            3.578873417        -0.000000000        -0.000000000
Cu            3.590088299         1.805831315         1.805831315
Cu            5.357717523        -0.000000000         1.802717264
Cu            5.357717523         1.802717264        -0.000000000
Cu            3.601763749        -0.000000000         3.601763749
Cu            3.604300265         1.808791981         5.384327396
Cu            5.403746864        -0.000000000         5.403746864
Cu            5.384327396         1.808791981         3.604300265
Cu            3.599633613        -0.000000000         7.157706875
Cu            3.523179345         1.775890264         8.839395435
Cu            5.348654003         1.793459165         7.131295182
Cu            3.598253188         3.598253188        -7.161525340
Cu            3.605667649         5.398451120        -5.398451120
Cu            5.398451120         3.605667649        -5.398451120
Cu            3.613705013         3.613705013        -3.613705013
Cu            3.604300265         5.384327396        -1.808791981
Cu            5.384327396         3.604300265        -1.808791981
Cu            5.398451120         5.398451120        -3.605667649
Cu            3.601763749         3.601763749        -0.000000000
Cu            3.604300265         5.384327396         1.808791981
Cu            5.384327396         3.604300265         1.808791981
Cu            5.403746864         5.403746864         0.000000000
Cu            3.613705013         3.613705013         3.613705013
Cu            3.605667649         5.398451120         5.398451120
Cu            5.398451120         3.605667649         5.398451120
Cu            5.398451120         5.398451120         3.605667649
Cu            3.598253188         3.598253188         7.161525340
Cu            3.598253188         7.161525340        -3.598253188
Cu            3.523179345         8.839395435        -1.775890264
Cu            5.348654003         7.131295182        -1.793459165
Cu            3.599633613         7.157706875         0.000000000
Cu            3.523179345         8.839395435         1.775890264
Cu            5.348654003         7.131295182         1.793459165
Cu            3.598253188         7.161525340         3.598253188
Cu            7.131295182        -5.348654003        -1.793459165
Cu            7.131295182        -5.348654003         1.793459165
Cu            7.131295182        -1.793459165        -5.348654003
Cu            7.161525340        -3.598253188        -3.598253188
Cu            7.127653674        -1.779932840        -1.779932840
Cu            8.839395435        -3.523179345        -1.775890264
Cu            8.839395435        -1.775890264        -3.523179345
Cu            7.157706875        -3.599633613        -0.000000000
Cu            7.127653674        -1.779932840         1.779932840
Cu            8.839395435        -3.523179345         1.775890264
Cu            8.928631524        -1.775324744        -0.000000000
Cu            7.161525340        -3.598253188         3.598253188
Cu            7.131295182        -1.793459165         5.348654003
Cu            8.839395435        -1.775890264         3.523179345
Cu            7.131295182         1.793459165        -5.348654003
Cu            7.157706875        -0.000000000        -3.599633613
Cu            7.127653674         1.779932840        -1.779932840
Cu            8.928631524        -0.000000000        -1.775324744
Cu            8.839395435         1.775890264        -3.523179345
Cu            7.150741935        -0.000000000        -0.000000000
Cu            7.127653674         1.779932840         1.779932840
Cu            8.928631524        -0.000000000         1.775324744
Cu            8.928631524         1.775324744        -0.000000000
Cu            7.157706875        -0.000000000         3.599633613
Cu            7.131295182         1.793459165         5.348654003
Cu            8.839395435         1.775890264         3.523179345
Cu            7.161525340         3.598253188        -3.598253188
Cu            7.131295182         5.348654003        -1.793459165
Cu            8.839395435         3.523179345        -1.775890264
Cu            7.157706875         3.599633613         0.000000000
Cu            7.131295182         5.348654003         1.793459165
Cu            8.839395435         3.523179345         1.775890264
Cu            7.161525340         3.598253188         3.598253188