405
energy_gulp=-1305.02284295
Cu           -8.820883266        -5.298103316        -0.000000000
Cu           -8.881440985        -3.540769063        -1.758425769
Cu           -8.881440985        -1.758425769        -3.540769063
Cu           -8.881440985        -3.540769063         1.758425769
Cu           -8.946233591        -1.780218986        -0.000000000
Cu           -8.881440985        -1.758425769         3.540769063
Cu           -8.820883266        -0.000000000        -5.298103316
Cu           -8.946233591        -0.000000000        -1.780218986
Cu           -8.881440985         1.758425769        -3.540769063
Cu           -8.946233591        -0.000000000         1.780218986
Cu           -8.946233591         1.780218986        -0.000000000
Cu           -8.820883266        -0.000000000         5.298103316
Cu           -8.881440985         1.758425769         3.540769063
Cu           -8.881440985         3.540769063        -1.758425769
Cu           -8.881440985         3.540769063         1.758425769
Cu           -8.820883266         5.298103316        -0.000000000
Cu           -5.298103316        -8.820883266        -0.000000000
Cu           -7.163940623        -5.380051462        -1.816472314
Cu           -5.380051462        -7.163940623        -1.816472314
Cu           -5.401164370        -5.401164370        -3.618050601
Cu           -7.107207999        -7.107207999        -0.000000000
Cu           -7.163940623        -5.380051462         1.816472314
Cu           -5.380051462        -7.163940623         1.816472314
Cu           -5.383941583        -5.383941583        -0.000000000
Cu           -5.401164370        -5.401164370         3.618050601
Cu           -7.163940623        -1.816472314        -5.380051462
Cu           -5.401164370        -3.618050601        -5.401164370
Cu           -5.380051462        -1.816472314        -7.163940623
Cu           -7.181307580        -3.595338778        -3.595338778
Cu           -7.145903374        -1.784366321        -1.784366321
Cu           -5.388905487        -3.607688008        -1.820335731
Cu           -5.388905487        -1.820335731        -3.607688008
Cu           -7.125273131        -3.569205407        -0.000000000
Cu           -7.145903374        -1.784366321         1.784366321
Cu           -5.388905487        -3.607688008         1.820335731
Cu           -5.354653525        -1.794162374        -0.000000000
Cu           -7.181307580        -3.595338778         3.595338778
Cu           -7.163940623        -1.816472314         5.380051462
Cu           -5.401164370        -3.618050601         5.401164370
Cu           -5.388905487        -1.820335731         3.607688008
Cu           -5.380051462        -1.816472314         7.163940623
Cu           -5.298103316        -0.000000000        -8.820883266
Cu           -7.107207999        -0.000000000        -7.107207999
Cu           -7.163940623         1.816472314        -5.380051462
Cu           -5.383941583        -0.000000000        -5.383941583
Cu           -5.380051462         1.816472314        -7.163940623
Cu           -7.125273131        -0.000000000        -3.569205407
Cu           -7.145903374         1.784366321        -1.784366321
Cu           -5.354653525        -0.000000000        -1.794162374
Cu           -5.388905487         1.820335731        -3.607688008
Cu           -7.164415338        -0.000000000        -0.000000000
Cu           -7.145903374         1.784366321         1.784366321
Cu           -5.354653525        -0.000000000         1.794162374
Cu           -5.354653525         1.794162374        -0.000000000
Cu           -7.125273131        -0.000000000         3.569205407
Cu           -7.163940623         1.816472314         5.380051462
Cu           -5.383941583        -0.000000000         5.383941583
Cu           -5.388905487         1.820335731         3.607688008
Cu           -7.107207999        -0.000000000         7.107207999
Cu           -5.298103316        -0.000000000         8.820883266
Cu           -5.380051462         1.816472314         7.163940623
Cu           -5.401164370         3.618050601        -5.401164370
Cu           -7.181307580         3.595338778        -3.595338778
Cu           -7.163940623         5.380051462        -1.816472314
Cu           -5.388905487         3.607688008        -1.820335731
Cu           -5.401164370         5.401164370        -3.618050601
Cu           -7.125273131         3.569205407        -0.000000000
Cu           -7.163940623         5.380051462         1.816472314
Cu           -5.388905487         3.607688008         1.820335731
Cu           -5.383941583         5.383941583        -0.000000000
Cu           -7.181307580         3.595338778         3.595338778
Cu           -5.401164370         3.618050601         5.401164370
Cu           -5.401164370         5.401164370         3.618050601
Cu           -5.380051462         7.163940623        -1.816472314
Cu           -7.107207999         7.107207999        -0.000000000
Cu           -5.380051462         7.163940623         1.816472314
Cu           -5.298103316         8.820883266        -0.000000000
Cu           -3.540769063        -8.881440985        -1.758425769
Cu           -1.758425769        -8.881440985        -3.540769063
Cu           -3.540769063        -8.881440985         1.758425769
Cu           -1.780218986        -8.946233591        -0.000000000
Cu           -1.758425769        -8.881440985         3.540769063
Cu           -3.618050601        -5.401164370        -5.401164370
Cu           -1.816472314        -7.163940623        -5.380051462
Cu           -1.816472314        -5.380051462        -7.163940623
Cu           -3.595338778        -7.181307580        -3.595338778
Cu           -3.607688008        -5.388905487        -1.820335731
Cu           -1.784366321        -7.145903374        -1.784366321
Cu           -1.820335731        -5.388905487        -3.607688008
Cu           -3.569205407        -7.125273131        -0.000000000
Cu           -3.607688008        -5.388905487         1.820335731
Cu           -1.784366321        -7.145903374         1.784366321
Cu           -1.794162374        -5.354653525        -0.000000000
Cu           -3.595338778        -7.181307580         3.595338778
Cu           -3.618050601        -5.401164370         5.401164370
Cu           -1.816472314        -7.163940623         5.380051462
Cu           -1.820335731        -5.388905487         3.607688008
Cu           -1.816472314        -5.380051462         7.163940623
Cu           -3.540769063        -1.758425769        -8.881440985
Cu           -1.758425769        -3.540769063        -8.881440985
Cu           -3.595338778        -3.595338778        -7.181307580
Cu           -3.607688008        -1.820335731        -5.388905487
Cu           -1.820335731        -3.607688008        -5.388905487
Cu           -1.784366321        -1.784366321        -7.145903374
Cu           -3.615506054        -3.615506054        -3.615506054
Cu           -3.591930946        -1.808019655        -1.808019655
Cu           -1.808019655        -3.591930946        -1.808019655
Cu           -1.808019655        -1.808019655        -3.591930946
Cu           -3.598970656        -3.598970656        -0.000000000
Cu           -3.591930946        -1.808019655         1.808019655
Cu           -1.808019655        -3.591930946         1.808019655
Cu           -1.800018302        -1.800018302        -0.000000000
Cu           -3.615506054        -3.615506054         3.615506054
Cu           -3.607688008        -1.820335731         5.388905487
Cu           -1.820335731        -3.607688008         5.388905487
Cu           -1.808019655        -1.808019655         3.591930946
Cu           -3.595338778        -3.595338778         7.181307580
Cu           -3.540769063        -1.758425769         8.881440985
Cu           -1.758425769        -3.540769063         8.881440985
Cu           -1.784366321        -1.784366321         7.145903374
Cu           -3.540769063         1.758425769        -8.881440985
Cu           -1.780218986        -0.000000000        -8.946233591
Cu           -3.569205407        -0.000000000        -7.125273131
Cu           -3.607688008         1.820335731        -5.388905487
Cu           -1.794162374        -0.000000000        -5.354653525
Cu           -1.784366321         1.784366321        -7.145903374
Cu           -3.598970656        -0.000000000        -3.598970656
Cu           -3.591930946         1.808019655        -1.808019655
Cu           -1.800018302        -0.000000000        -1.800018302
Cu           -1.808019655         1.808019655        -3.591930946
Cu           -3.572053018        -0.000000000        -0.000000000
Cu           -3.591930946         1.808019655         1.808019655
Cu           -1.800018302        -0.000000000         1.800018302
Cu           -1.800018302         1.800018302        -0.000000000
Cu           -3.598970656        -0.000000000         3.598970656
Cu           -3.607688008         1.820335731         5.388905487
Cu           -1.794162374        -0.000000000         5.354653525
Cu           -1.808019655         1.808019655         3.591930946
Cu           -3.569205407        -0.000000000         7.125273131
Cu           -3.540769063         1.758425769         8.881440985
Cu           -1.780218986        -0.000000000         8.946233591
Cu           -1.784366321         1.784366321         7.145903374
Cu           -1.758425769         3.540769063        -8.881440985
Cu           -3.595338778         3.595338778        -7.181307580
Cu           -3.618050601         5.401164370        -5.401164370
Cu           -1.820335731         3.607688008        -5.388905487
Cu           -1.816472314         5.380051462        -7.163940623
Cu           -3.615506054         3.615506054        -3.615506054
Cu           -3.607688008         5.388905487        -1.820335731
Cu           -1.808019655         3.591930946        -1.808019655
Cu           -1.820335731         5.388905487        -3.607688008
Cu           -3.598970656         3.598970656        -0.000000000
Cu           -3.607688008         5.388905487         1.820335731
Cu           -1.808019655         3.591930946         1.808019655
Cu           -1.794162374         5.354653525        -0.000000000
Cu           -3.615506054         3.615506054         3.615506054
Cu           -3.618050601         5.401164370         5.401164370
Cu           -1.820335731         3.607688008         5.388905487
Cu           -1.820335731         5.388905487         3.607688008
Cu           -3.595338778         3.595338778         7.181307580
Cu           -1.758425769         3.540769063         8.881440985
Cu           -1.816472314         5.380051462         7.163940623
Cu           -1.816472314         7.163940623        -5.380051462
Cu           -3.595338778         7.181307580        -3.595338778
Cu           -3.540769063         8.881440985        -1.758425769
Cu           -1.784366321         7.145903374        -1.784366321
Cu           -1.758425769         8.881440985        -3.540769063
Cu           -3.569205407         7.125273131        -0.000000000
Cu           -3.540769063         8.881440985         1.758425769
Cu           -1.784366321         7.145903374         1.784366321
Cu           -1.780218986         8.946233591        -0.000000000
Cu           -3.595338778         7.181307580         3.595338778
Cu           -1.816472314         7.163940623         5.380051462
Cu           -1.758425769         8.881440985         3.540769063
Cu            0.000000000        -8.820883266        -5.298103316
Cu            0.000000000        -8.946233591        -1.780218986
Cu            1.758425769        -8.881440985        -3.540769063
Cu            0.000000000        -8.946233591         1.780218986
Cu            1.780218986        -8.946233591        -0.000000000
Cu            0.000000000        -8.820883266         5.298103316
Cu            1.758425769        -8.881440985         3.540769063
Cu            0.000000000        -5.298103316        -8.820883266
Cu            0.000000000        -7.107207999        -7.107207999
Cu            0.000000000        -5.383941583        -5.383941583
Cu            1.816472314        -7.163940623        -5.380051462
Cu            1.816472314        -5.380051462        -7.163940623
Cu            0.000000000        -7.125273131        -3.569205407
Cu            0.000000000        -5.354653525        -1.794162374
Cu            1.784366321        -7.145903374        -1.784366321
Cu            1.820335731        -5.388905487        -3.607688008
Cu            0.000000000        -7.164415338        -0.000000000
Cu            0.000000000        -5.354653525         1.794162374
Cu            1.784366321        -7.145903374         1.784366321
Cu            1.794162374        -5.354653525        -0.000000000
Cu            0.000000000        -7.125273131         3.569205407
Cu            0.000000000        -5.383941583         5.383941583
Cu            1.816472314        -7.163940623         5.380051462
Cu            1.820335731        -5.388905487         3.607688008
Cu            0.000000000        -7.107207999         7.107207999
Cu            0.000000000        -5.298103316         8.820883266
Cu            1.816472314        -5.380051462         7.163940623
Cu           -0.000000000        -1.780218986        -8.946233591
Cu            1.758425769        -3.540769063        -8.881440985
Cu           -0.000000000        -3.569205407        -7.125273131
Cu           -0.000000000        -1.794162374        -5.354653525
Cu            1.820335731        -3.607688008        -5.388905487
Cu            1.784366321        -1.784366321        -7.145903374
Cu           -0.000000000        -3.598970656        -3.598970656
Cu           -0.000000000        -1.800018302        -1.800018302
Cu            1.808019655        -3.591930946        -1.808019655
Cu            1.808019655        -1.808019655        -3.591930946
Cu            0.000000000        -3.572053018        -0.000000000
Cu           -0.000000000        -1.800018302         1.800018302
Cu            1.808019655        -3.591930946         1.808019655
Cu            1.800018302        -1.800018302        -0.000000000
Cu           -0.000000000        -3.598970656         3.598970656
Cu           -0.000000000        -1.794162374         5.354653525
Cu            1.820335731        -3.607688008         5.388905487
Cu            1.808019655        -1.808019655         3.591930946
Cu           -0.000000000        -3.569205407         7.125273131
Cu           -0.000000000        -1.780218986         8.946233591
Cu            1.758425769        -3.540769063         8.881440985
Cu            1.784366321        -1.784366321         7.145903374
Cu           -0.000000000         1.780218986        -8.946233591
Cu            1.780218986         0.000000000        -8.946233591
Cu           -0.000000000        -0.000000000        -7.164415338
Cu           -0.000000000         1.794162374        -5.354653525
Cu            1.794162374         0.000000000        -5.354653525
Cu            1.784366321         1.784366321        -7.145903374
Cu           -0.000000000        -0.000000000        -3.572053018
Cu           -0.000000000         1.800018302        -1.800018302
Cu            1.800018302         0.000000000        -1.800018302
Cu            1.808019655         1.808019655        -3.591930946
Cu            0.000000000         0.000000000         0.000000000
Cu           -0.000000000         1.800018302         1.800018302
Cu            1.800018302         0.000000000         1.800018302
Cu            1.800018302         1.800018302        -0.000000000
Cu           -0.000000000        -0.000000000         3.572053018
Cu           -0.000000000         1.794162374         5.354653525
Cu            1.794162374        -0.000000000         5.354653525
Cu            1.808019655         1.808019655         3.591930946
Cu           -0.000000000        -0.000000000         7.164415338
Cu           -0.000000000         1.780218986         8.946233591
Cu            1.780218986        -0.000000000         8.946233591
Cu            1.784366321         1.784366321         7.145903374
Cu           -0.000000000         5.298103316        -8.820883266
Cu            1.758425769         3.540769063        -8.881440985
Cu           -0.000000000         3.569205407        -7.125273131
Cu           -0.000000000         5.383941583        -5.383941583
Cu            1.820335731         3.607688008        -5.388905487
Cu            1.816472314         5.380051462        -7.163940623
Cu           -0.000000000         3.598970656        -3.598970656
Cu           -0.000000000         5.354653525        -1.794162374
Cu            1.808019655         3.591930946        -1.808019655
Cu            1.820335731         5.388905487        -3.607688008
Cu           -0.000000000         3.572053018        -0.000000000
Cu           -0.000000000         5.354653525         1.794162374
Cu            1.808019655         3.591930946         1.808019655
Cu            1.794162374         5.354653525        -0.000000000
Cu           -0.000000000         3.598970656         3.598970656
Cu           -0.000000000         5.383941583         5.383941583
Cu            1.820335731         3.607688008         5.388905487
Cu            1.820335731         5.388905487         3.607688008
Cu           -0.000000000         3.569205407         7.125273131
Cu           -0.000000000         5.298103316         8.820883266
Cu            1.758425769         3.540769063         8.881440985
Cu            1.816472314         5.380051462         7.163940623
Cu           -0.000000000         7.107207999        -7.107207999
Cu           -0.000000000         8.820883266        -5.298103316
Cu            1.816472314         7.163940623        -5.380051462
Cu           -0.000000000         7.125273131        -3.569205407
Cu           -0.000000000         8.946233591        -1.780218986
Cu            1.784366321         7.145903374        -1.784366321
Cu            1.758425769         8.881440985        -3.540769063
Cu           -0.000000000         7.164415338        -0.000000000
Cu           -0.000000000         8.946233591         1.780218986
Cu            1.784366321         7.145903374         1.784366321
Cu            1.780218986         8.946233591         0.000000000
Cu           -0.000000000         7.125273131         3.569205407
Cu           -0.000000000         8.820883266         5.298103316
Cu            1.816472314         7.163940623         5.380051462
Cu            1.758425769         8.881440985         3.540769063
Cu           -0.000000000         7.107207999         7.107207999
Cu            3.540769063        -8.881440985        -1.758425769
Cu            3.540769063        -8.881440985         1.758425769
Cu            5.298103316        -8.820883266        -0.000000000
Cu            3.618050601        -5.401164370        -5.401164370
Cu            3.595338778        -7.181307580        -3.595338778
Cu            3.607688008        -5.388905487        -1.820335731
Cu            5.380051462        -7.163940623        -1.816472314
Cu            5.401164370        -5.401164370        -3.618050601
Cu            3.569205407        -7.125273131        -0.000000000
Cu            3.607688008        -5.388905487         1.820335731
Cu            5.380051462        -7.163940623         1.816472314
Cu            5.383941583        -5.383941583        -0.000000000
Cu            3.595338778        -7.181307580         3.595338778
Cu            3.618050601        -5.401164370         5.401164370
Cu            5.401164370        -5.401164370         3.618050601
Cu            3.540769063        -1.758425769        -8.881440985
Cu            3.595338778        -3.595338778        -7.181307580
Cu            3.607688008        -1.820335731        -5.388905487
Cu            5.401164370        -3.618050601        -5.401164370
Cu            5.380051462        -1.816472314        -7.163940623
Cu            3.615506054        -3.615506054        -3.615506054
Cu            3.591930946        -1.808019655        -1.808019655
Cu            5.388905487        -3.607688008        -1.820335731
Cu            5.388905487        -1.820335731        -3.607688008
Cu            3.598970656        -3.598970656        -0.000000000
Cu            3.591930946        -1.808019655         1.808019655
Cu            5.388905487        -3.607688008         1.820335731
Cu            5.354653525        -1.794162374        -0.000000000
Cu            3.615506054        -3.615506054         3.615506054
Cu            3.607688008        -1.820335731         5.388905487
Cu            5.401164370        -3.618050601         5.401164370
Cu            5.388905487        -1.820335731         3.607688008
Cu            3.595338778        -3.595338778         7.181307580
Cu            3.540769063        -1.758425769         8.881440985
Cu            5.380051462        -1.816472314         7.163940623
Cu            3.540769063         1.758425769        -8.881440985
Cu            5.298103316         0.000000000        -8.820883266
Cu            3.569205407         0.000000000        -7.125273131
Cu            3.607688008         1.820335731        -5.388905487
Cu            5.383941583         0.000000000        -5.383941583
Cu            5.380051462         1.816472314        -7.163940623
Cu            3.598970656         0.000000000        -3.598970656
Cu            3.591930946         1.808019655        -1.808019655
Cu            5.354653525         0.000000000        -1.794162374
Cu            5.388905487         1.820335731        -3.607688008
Cu            3.572053018         0.000000000        -0.000000000
Cu            3.591930946         1.808019655         1.808019655
Cu            5.354653525         0.000000000         1.794162374
Cu            5.354653525         1.794162374        -0.000000000
Cu            3.598970656         0.000000000         3.598970656
Cu            3.607688008         1.820335731         5.388905487
Cu            5.383941583         0.000000000         5.383941583
Cu            5.388905487         1.820335731         3.607688008
Cu            3.569205407         0.000000000         7.125273131
Cu            3.540769063         1.758425769         8.881440985
Cu            5.298103316         0.000000000         8.820883266
Cu            5.380051462         1.816472314         7.163940623
Cu            3.595338778         3.595338778        -7.181307580
Cu            3.618050601         5.401164370        -5.401164370
Cu            5.401164370         3.618050601        -5.401164370
Cu            3.615506054         3.615506054        -3.615506054
Cu            3.607688008         5.388905487        -1.820335731
Cu            5.388905487         3.607688008        -1.820335731
Cu            5.401164370         5.401164370        -3.618050601
Cu            3.598970656         3.598970656        -0.000000000
Cu            3.607688008         5.388905487         1.820335731
Cu            5.388905487         3.607688008         1.820335731
Cu            5.383941583         5.383941583         0.000000000
Cu            3.615506054         3.615506054         3.615506054
Cu            3.618050601         5.401164370         5.401164370
Cu            5.401164370         3.618050601         5.401164370
Cu            5.401164370         5.401164370         3.618050601
Cu            3.595338778         3.595338778         7.181307580
Cu            3.595338778         7.181307580        -3.595338778
Cu            3.540769063         8.881440985        -1.758425769
Cu            5.380051462         7.163940623        -1.816472314
Cu            3.569205407         7.125273131         0.000000000
Cu            3.540769063         8.881440985         1.758425769
Cu            5.380051462         7.163940623         1.816472314
Cu            5.298103316         8.820883266         0.000000000
Cu            3.595338778         7.181307580         3.595338778
Cu            7.163940623        -5.380051462        -1.816472314
Cu            7.107207999        -7.107207999        -0.000000000
Cu            7.163940623        -5.380051462         1.816472314
Cu            8.820883266        -5.298103316        -0.000000000
Cu            7.163940623        -1.816472314        -5.380051462
Cu            7.181307580        -3.595338778        -3.595338778
Cu            7.145903374        -1.784366321        -1.784366321
Cu            8.881440985        -3.540769063        -1.758425769
Cu            8.881440985        -1.758425769        -3.540769063
Cu            7.125273131        -3.569205407        -0.000000000
Cu            7.145903374        -1.784366321         1.784366321
Cu            8.881440985        -3.540769063         1.758425769
Cu            8.946233591        -1.780218986        -0.000000000
Cu            7.181307580        -3.595338778         3.595338778
Cu            7.163940623        -1.816472314         5.380051462
Cu            8.881440985        -1.758425769         3.540769063
Cu            7.107207999         0.000000000        -7.107207999
Cu            7.163940623         1.816472314        -5.380051462
Cu            8.820883266         0.000000000        -5.298103316
Cu            7.125273131         0.000000000        -3.569205407
Cu            7.145903374         1.784366321        -1.784366321
Cu            8.946233591         0.000000000        -1.780218986
Cu            8.881440985         1.758425769        -3.540769063
Cu            7.164415338         0.000000000        -0.000000000
Cu            7.145903374         1.784366321         1.784366321
Cu            8.946233591         0.000000000         1.780218986
Cu            8.946233591         1.780218986         0.000000000
Cu            7.125273131         0.000000000         3.569205407
Cu            7.163940623         1.816472314         5.380051462
Cu            8.820883266         0.000000000         5.298103316
Cu            8.881440985         1.758425769         3.540769063
Cu            7.107207999         0.000000000         7.107207999
Cu            7.181307580         3.595338778        -3.595338778
Cu            7.163940623         5.380051462        -1.816472314
Cu            8.881440985         3.540769063        -1.758425769
Cu            7.125273131         3.569205407         0.000000000
Cu            7.163940623         5.380051462         1.816472314
Cu            8.881440985         3.540769063         1.758425769
Cu            8.820883266         5.298103316         0.000000000
Cu            7.181307580         3.595338778         3.595338778
Cu            7.107207999         7.107207999         0.000000000