459
energy_gulp=-1483.00243779
Cu           -8.884707483        -5.332369781        -0.000000000
Cu          -10.626075827        -1.755518889        -1.755518889
Cu           -8.926664926        -3.598772524        -1.816048285
Cu           -8.926664926        -1.816048285        -3.598772524
Cu          -10.580344050        -3.510598844        -0.000000000
Cu          -10.626075827        -1.755518889         1.755518889
Cu           -8.926664926        -3.598772524         1.816048285
Cu           -8.870524591        -1.786345120        -0.000000000
Cu           -8.926664926        -1.816048285         3.598772524
Cu           -8.884707483         0.000000000        -5.332369781
Cu          -10.580344050         0.000000000        -3.510598844
Cu          -10.626075827         1.755518889        -1.755518889
Cu           -8.870524591         0.000000000        -1.786345120
Cu           -8.926664926         1.816048285        -3.598772524
Cu          -10.673953541         0.000000000        -0.000000000
Cu          -10.626075827         1.755518889         1.755518889
Cu           -8.870524591         0.000000000         1.786345120
Cu           -8.870524591         1.786345120        -0.000000000
Cu          -10.580344050         0.000000000         3.510598844
Cu           -8.884707483         0.000000000         5.332369781
Cu           -8.926664926         1.816048285         3.598772524
Cu           -8.926664926         3.598772524        -1.816048285
Cu          -10.580344050         3.510598844        -0.000000000
Cu           -8.926664926         3.598772524         1.816048285
Cu           -8.884707483         5.332369781        -0.000000000
Cu           -5.332369781        -8.884707483        -0.000000000
Cu           -7.174156443        -5.398420530        -1.815859998
Cu           -5.398420530        -7.174156443        -1.815859998
Cu           -5.409456616        -5.409456616        -3.623314495
Cu           -7.118163567        -7.118163567        -0.000000000
Cu           -7.174156443        -5.398420530         1.815859998
Cu           -5.398420530        -7.174156443         1.815859998
Cu           -5.390629104        -5.390629104        -0.000000000
Cu           -5.409456616        -5.409456616         3.623314495
Cu           -7.174156443        -1.815859998        -5.398420530
Cu           -5.409456616        -3.623314495        -5.409456616
Cu           -5.398420530        -1.815859998        -7.174156443
Cu           -7.176852141        -3.622484079        -3.622484079
Cu           -7.144083213        -1.823872282        -1.823872282
Cu           -5.394846018        -3.620229201        -1.823156200
Cu           -5.394846018        -1.823156200        -3.620229201
Cu           -7.153942895        -3.608483231        -0.000000000
Cu           -7.144083213        -1.823872282         1.823872282
Cu           -5.394846018        -3.620229201         1.823156200
Cu           -5.370159243        -1.814980737        -0.000000000
Cu           -7.176852141        -3.622484079         3.622484079
Cu           -7.174156443        -1.815859998         5.398420530
Cu           -5.409456616        -3.623314495         5.409456616
Cu           -5.394846018        -1.823156200         3.620229201
Cu           -5.398420530        -1.815859998         7.174156443
Cu           -5.332369781         0.000000000        -8.884707483
Cu           -7.118163567         0.000000000        -7.118163567
Cu           -7.174156443         1.815859998        -5.398420530
Cu           -5.390629104         0.000000000        -5.390629104
Cu           -5.398420530         1.815859998        -7.174156443
Cu           -7.153942895         0.000000000        -3.608483231
Cu           -7.144083213         1.823872282        -1.823872282
Cu           -5.370159243         0.000000000        -1.814980737
Cu           -5.394846018         1.823156200        -3.620229201
Cu           -7.100423556         0.000000000        -0.000000000
Cu           -7.144083213         1.823872282         1.823872282
Cu           -5.370159243         0.000000000         1.814980737
Cu           -5.370159243         1.814980737        -0.000000000
Cu           -7.153942895         0.000000000         3.608483231
Cu           -7.174156443         1.815859998         5.398420530
Cu           -5.390629104         0.000000000         5.390629104
Cu           -5.394846018         1.823156200         3.620229201
Cu           -7.118163567         0.000000000         7.118163567
Cu           -5.332369781         0.000000000         8.884707483
Cu           -5.398420530         1.815859998         7.174156443
Cu           -5.409456616         3.623314495        -5.409456616
Cu           -7.176852141         3.622484079        -3.622484079
Cu           -7.174156443         5.398420530        -1.815859998
Cu           -5.394846018         3.620229201        -1.823156200
Cu           -5.409456616         5.409456616        -3.623314495
Cu           -7.153942895         3.608483231        -0.000000000
Cu           -7.174156443         5.398420530         1.815859998
Cu           -5.394846018         3.620229201         1.823156200
Cu           -5.390629104         5.390629104        -0.000000000
Cu           -7.176852141         3.622484079         3.622484079
Cu           -5.409456616         3.623314495         5.409456616
Cu           -5.409456616         5.409456616         3.623314495
Cu           -5.398420530         7.174156443        -1.815859998
Cu           -7.118163567         7.118163567        -0.000000000
Cu           -5.398420530         7.174156443         1.815859998
Cu           -5.332369781         8.884707483         0.000000000
Cu           -3.598772524        -8.926664926        -1.816048285
Cu           -1.755518889       -10.626075827        -1.755518889
Cu           -1.816048285        -8.926664926        -3.598772524
Cu           -3.510598844       -10.580344050        -0.000000000
Cu           -3.598772524        -8.926664926         1.816048285
Cu           -1.755518889       -10.626075827         1.755518889
Cu           -1.786345120        -8.870524591        -0.000000000
Cu           -1.816048285        -8.926664926         3.598772524
Cu           -3.623314495        -5.409456616        -5.409456616
Cu           -1.815859998        -7.174156443        -5.398420530
Cu           -1.815859998        -5.398420530        -7.174156443
Cu           -3.622484079        -7.176852141        -3.622484079
Cu           -3.620229201        -5.394846018        -1.823156200
Cu           -1.823872282        -7.144083213        -1.823872282
Cu           -1.823156200        -5.394846018        -3.620229201
Cu           -3.608483231        -7.153942895        -0.000000000
Cu           -3.620229201        -5.394846018         1.823156200
Cu           -1.823872282        -7.144083213         1.823872282
Cu           -1.814980737        -5.370159243        -0.000000000
Cu           -3.622484079        -7.176852141         3.622484079
Cu           -3.623314495        -5.409456616         5.409456616
Cu           -1.815859998        -7.174156443         5.398420530
Cu           -1.823156200        -5.394846018         3.620229201
Cu           -1.815859998        -5.398420530         7.174156443
Cu           -3.598772524        -1.816048285        -8.926664926
Cu           -1.816048285        -3.598772524        -8.926664926
Cu           -1.755518889        -1.755518889       -10.626075827
Cu           -3.622484079        -3.622484079        -7.176852141
Cu           -3.620229201        -1.823156200        -5.394846018
Cu           -1.823156200        -3.620229201        -5.394846018
Cu           -1.823872282        -1.823872282        -7.144083213
Cu           -3.619654245        -3.619654245        -3.619654245
Cu           -3.599327514        -1.809607490        -1.809607490
Cu           -1.809607490        -3.599327514        -1.809607490
Cu           -1.809607490        -1.809607490        -3.599327514
Cu           -3.601986204        -3.601986204        -0.000000000
Cu           -3.599327514        -1.809607490         1.809607490
Cu           -1.809607490        -3.599327514         1.809607490
Cu           -1.802081362        -1.802081362        -0.000000000
Cu           -3.619654245        -3.619654245         3.619654245
Cu           -3.620229201        -1.823156200         5.394846018
Cu           -1.823156200        -3.620229201         5.394846018
Cu           -1.809607490        -1.809607490         3.599327514
Cu           -3.622484079        -3.622484079         7.176852141
Cu           -3.598772524        -1.816048285         8.926664926
Cu           -1.816048285        -3.598772524         8.926664926
Cu           -1.823872282        -1.823872282         7.144083213
Cu           -1.755518889        -1.755518889        10.626075827
Cu           -3.510598844         0.000000000       -10.580344050
Cu           -3.598772524         1.816048285        -8.926664926
Cu           -1.786345120         0.000000000        -8.870524591
Cu           -1.755518889         1.755518889       -10.626075827
Cu           -3.608483231         0.000000000        -7.153942895
Cu           -3.620229201         1.823156200        -5.394846018
Cu           -1.814980737         0.000000000        -5.370159243
Cu           -1.823872282         1.823872282        -7.144083213
Cu           -3.601986204         0.000000000        -3.601986204
Cu           -3.599327514         1.809607490        -1.809607490
Cu           -1.802081362         0.000000000        -1.802081362
Cu           -1.809607490         1.809607490        -3.599327514
Cu           -3.592529380         0.000000000        -0.000000000
Cu           -3.599327514         1.809607490         1.809607490
Cu           -1.802081362         0.000000000         1.802081362
Cu           -1.802081362         1.802081362        -0.000000000
Cu           -3.601986204         0.000000000         3.601986204
Cu           -3.620229201         1.823156200         5.394846018
Cu           -1.814980737         0.000000000         5.370159243
Cu           -1.809607490         1.809607490         3.599327514
Cu           -3.608483231         0.000000000         7.153942895
Cu           -3.598772524         1.816048285         8.926664926
Cu           -1.786345120         0.000000000         8.870524591
Cu           -1.823872282         1.823872282         7.144083213
Cu           -3.510598844         0.000000000        10.580344050
Cu           -1.755518889         1.755518889        10.626075827
Cu           -1.816048285         3.598772524        -8.926664926
Cu           -3.622484079         3.622484079        -7.176852141
Cu           -3.623314495         5.409456616        -5.409456616
Cu           -1.823156200         3.620229201        -5.394846018
Cu           -1.815859998         5.398420530        -7.174156443
Cu           -3.619654245         3.619654245        -3.619654245
Cu           -3.620229201         5.394846018        -1.823156200
Cu           -1.809607490         3.599327514        -1.809607490
Cu           -1.823156200         5.394846018        -3.620229201
Cu           -3.601986204         3.601986204        -0.000000000
Cu           -3.620229201         5.394846018         1.823156200
Cu           -1.809607490         3.599327514         1.809607490
Cu           -1.814980737         5.370159243         0.000000000
Cu           -3.619654245         3.619654245         3.619654245
Cu           -3.623314495         5.409456616         5.409456616
Cu           -1.823156200         3.620229201         5.394846018
Cu           -1.823156200         5.394846018         3.620229201
Cu           -3.622484079         3.622484079         7.176852141
Cu           -1.816048285         3.598772524         8.926664926
Cu           -1.815859998         5.398420530         7.174156443
Cu           -1.815859998         7.174156443        -5.398420530
Cu           -3.622484079         7.176852141        -3.622484079
Cu           -3.598772524         8.926664926        -1.816048285
Cu           -1.823872282         7.144083213        -1.823872282
Cu           -1.816048285         8.926664926        -3.598772524
Cu           -3.608483231         7.153942895         0.000000000
Cu           -3.598772524         8.926664926         1.816048285
Cu           -1.823872282         7.144083213         1.823872282
Cu           -1.786345120         8.870524591         0.000000000
Cu           -3.622484079         7.176852141         3.622484079
Cu           -1.815859998         7.174156443         5.398420530
Cu           -1.816048285         8.926664926         3.598772524
Cu           -1.755518889        10.626075827        -1.755518889
Cu           -3.510598844        10.580344050         0.000000000
Cu           -1.755518889        10.626075827         1.755518889
Cu            0.000000000        -8.884707483        -5.332369781
Cu            0.000000000       -10.580344050        -3.510598844
Cu            0.000000000        -8.870524591        -1.786345120
Cu            1.755518889       -10.626075827        -1.755518889
Cu            1.816048285        -8.926664926        -3.598772524
Cu            0.000000000       -10.673953541        -0.000000000
Cu            0.000000000        -8.870524591         1.786345120
Cu            1.755518889       -10.626075827         1.755518889
Cu            1.786345120        -8.870524591        -0.000000000
Cu            0.000000000       -10.580344050         3.510598844
Cu            0.000000000        -8.884707483         5.332369781
Cu            1.816048285        -8.926664926         3.598772524
Cu            0.000000000        -5.332369781        -8.884707483
Cu            0.000000000        -7.118163567        -7.118163567
Cu            0.000000000        -5.390629104        -5.390629104
Cu            1.815859998        -7.174156443        -5.398420530
Cu            1.815859998        -5.398420530        -7.174156443
Cu            0.000000000        -7.153942895        -3.608483231
Cu            0.000000000        -5.370159243        -1.814980737
Cu            1.823872282        -7.144083213        -1.823872282
Cu            1.823156200        -5.394846018        -3.620229201
Cu            0.000000000        -7.100423556        -0.000000000
Cu            0.000000000        -5.370159243         1.814980737
Cu            1.823872282        -7.144083213         1.823872282
Cu            1.814980737        -5.370159243        -0.000000000
Cu            0.000000000        -7.153942895         3.608483231
Cu            0.000000000        -5.390629104         5.390629104
Cu            1.815859998        -7.174156443         5.398420530
Cu            1.823156200        -5.394846018         3.620229201
Cu            0.000000000        -7.118163567         7.118163567
Cu            0.000000000        -5.332369781         8.884707483
Cu            1.815859998        -5.398420530         7.174156443
Cu            0.000000000        -3.510598844       -10.580344050
Cu            0.000000000        -1.786345120        -8.870524591
Cu            1.816048285        -3.598772524        -8.926664926
Cu            1.755518889        -1.755518889       -10.626075827
Cu            0.000000000        -3.608483231        -7.153942895
Cu            0.000000000        -1.814980737        -5.370159243
Cu            1.823156200        -3.620229201        -5.394846018
Cu            1.823872282        -1.823872282        -7.144083213
Cu            0.000000000        -3.601986204        -3.601986204
Cu            0.000000000        -1.802081362        -1.802081362
Cu            1.809607490        -3.599327514        -1.809607490
Cu            1.809607490        -1.809607490        -3.599327514
Cu            0.000000000        -3.592529380        -0.000000000
Cu            0.000000000        -1.802081362         1.802081362
Cu            1.809607490        -3.599327514         1.809607490
Cu            1.802081362        -1.802081362         0.000000000
Cu            0.000000000        -3.601986204         3.601986204
Cu            0.000000000        -1.814980737         5.370159243
Cu            1.823156200        -3.620229201         5.394846018
Cu            1.809607490        -1.809607490         3.599327514
Cu            0.000000000        -3.608483231         7.153942895
Cu            0.000000000        -1.786345120         8.870524591
Cu            1.816048285        -3.598772524         8.926664926
Cu            1.823872282        -1.823872282         7.144083213
Cu            0.000000000        -3.510598844        10.580344050
Cu            1.755518889        -1.755518889        10.626075827
Cu            0.000000000         0.000000000       -10.673953541
Cu            0.000000000         1.786345120        -8.870524591
Cu            1.786345120         0.000000000        -8.870524591
Cu            1.755518889         1.755518889       -10.626075827
Cu            0.000000000         0.000000000        -7.100423556
Cu            0.000000000         1.814980737        -5.370159243
Cu            1.814980737         0.000000000        -5.370159243
Cu            1.823872282         1.823872282        -7.144083213
Cu            0.000000000         0.000000000        -3.592529380
Cu            0.000000000         1.802081362        -1.802081362
Cu            1.802081362         0.000000000        -1.802081362
Cu            1.809607490         1.809607490        -3.599327514
Cu            0.000000000         0.000000000         0.000000000
Cu            0.000000000         1.802081362         1.802081362
Cu            1.802081362         0.000000000         1.802081362
Cu            1.802081362         1.802081362         0.000000000
Cu            0.000000000         0.000000000         3.592529380
Cu            0.000000000         1.814980737         5.370159243
Cu            1.814980737         0.000000000         5.370159243
Cu            1.809607490         1.809607490         3.599327514
Cu            0.000000000         0.000000000         7.100423556
Cu            0.000000000         1.786345120         8.870524591
Cu            1.786345120         0.000000000         8.870524591
Cu            1.823872282         1.823872282         7.144083213
Cu           -0.000000000         0.000000000        10.673953541
Cu            1.755518889         1.755518889        10.626075827
Cu            0.000000000         3.510598844       -10.580344050
Cu            0.000000000         5.332369781        -8.884707483
Cu            1.816048285         3.598772524        -8.926664926
Cu            0.000000000         3.608483231        -7.153942895
Cu            0.000000000         5.390629104        -5.390629104
Cu            1.823156200         3.620229201        -5.394846018
Cu            1.815859998         5.398420530        -7.174156443
Cu            0.000000000         3.601986204        -3.601986204
Cu            0.000000000         5.370159243        -1.814980737
Cu            1.809607490         3.599327514        -1.809607490
Cu            1.823156200         5.394846018        -3.620229201
Cu            0.000000000         3.592529380         0.000000000
Cu            0.000000000         5.370159243         1.814980737
Cu            1.809607490         3.599327514         1.809607490
Cu            1.814980737         5.370159243         0.000000000
Cu            0.000000000         3.601986204         3.601986204
Cu           -0.000000000         5.390629104         5.390629104
Cu            1.823156200         3.620229201         5.394846018
Cu            1.823156200         5.394846018         3.620229201
Cu           -0.000000000         3.608483231         7.153942895
Cu           -0.000000000         5.332369781         8.884707483
Cu            1.816048285         3.598772524         8.926664926
Cu            1.815859998         5.398420530         7.174156443
Cu           -0.000000000         3.510598844        10.580344050
Cu            0.000000000         7.118163567        -7.118163567
Cu            0.000000000         8.884707483        -5.332369781
Cu            1.815859998         7.174156443        -5.398420530
Cu            0.000000000         7.153942895        -3.608483231
Cu            0.000000000         8.870524591        -1.786345120
Cu            1.823872282         7.144083213        -1.823872282
Cu            1.816048285         8.926664926        -3.598772524
Cu            0.000000000         7.100423556         0.000000000
Cu           -0.000000000         8.870524591         1.786345120
Cu            1.823872282         7.144083213         1.823872282
Cu            1.786345120         8.870524591         0.000000000
Cu           -0.000000000         7.153942895         3.608483231
Cu           -0.000000000         8.884707483         5.332369781
Cu            1.815859998         7.174156443         5.398420530
Cu            1.816048285         8.926664926         3.598772524
Cu           -0.000000000         7.118163567         7.118163567
Cu           -0.000000000        10.580344050        -3.510598844
Cu            1.755518889        10.626075827        -1.755518889
Cu           -0.000000000        10.673953541         0.000000000
Cu            1.755518889        10.626075827         1.755518889
Cu           -0.000000000        10.580344050         3.510598844
Cu            3.598772524        -8.926664926        -1.816048285
Cu            3.510598844       -10.580344050        -0.000000000
Cu            3.598772524        -8.926664926         1.816048285
Cu            5.332369781        -8.884707483        -0.000000000
Cu            3.623314495        -5.409456616        -5.409456616
Cu            3.622484079        -7.176852141        -3.622484079
Cu            3.620229201        -5.394846018        -1.823156200
Cu            5.398420530        -7.174156443        -1.815859998
Cu            5.409456616        -5.409456616        -3.623314495
Cu            3.608483231        -7.153942895        -0.000000000
Cu            3.620229201        -5.394846018         1.823156200
Cu            5.398420530        -7.174156443         1.815859998
Cu            5.390629104        -5.390629104         0.000000000
Cu            3.622484079        -7.176852141         3.622484079
Cu            3.623314495        -5.409456616         5.409456616
Cu            5.409456616        -5.409456616         3.623314495
Cu            3.598772524        -1.816048285        -8.926664926
Cu            3.622484079        -3.622484079        -7.176852141
Cu            3.620229201        -1.823156200        -5.394846018
Cu            5.409456616        -3.623314495        -5.409456616
Cu            5.398420530        -1.815859998        -7.174156443
Cu            3.619654245        -3.619654245        -3.619654245
Cu            3.599327514        -1.809607490        -1.809607490
Cu            5.394846018        -3.620229201        -1.823156200
Cu            5.394846018        -1.823156200        -3.620229201
Cu            3.601986204        -3.601986204         0.000000000
Cu            3.599327514        -1.809607490         1.809607490
Cu            5.394846018        -3.620229201         1.823156200
Cu            5.370159243        -1.814980737         0.000000000
Cu            3.619654245        -3.619654245         3.619654245
Cu            3.620229201        -1.823156200         5.394846018
Cu            5.409456616        -3.623314495         5.409456616
Cu            5.394846018        -1.823156200         3.620229201
Cu            3.622484079        -3.622484079         7.176852141
Cu            3.598772524        -1.816048285         8.926664926
Cu            5.398420530        -1.815859998         7.174156443
Cu            3.510598844         0.000000000       -10.580344050
Cu            3.598772524         1.816048285        -8.926664926
Cu            5.332369781         0.000000000        -8.884707483
Cu            3.608483231         0.000000000        -7.153942895
Cu            3.620229201         1.823156200        -5.394846018
Cu            5.390629104         0.000000000        -5.390629104
Cu            5.398420530         1.815859998        -7.174156443
Cu            3.601986204         0.000000000        -3.601986204
Cu            3.599327514         1.809607490        -1.809607490
Cu            5.370159243         0.000000000        -1.814980737
Cu            5.394846018         1.823156200        -3.620229201
Cu            3.592529380         0.000000000         0.000000000
Cu            3.599327514         1.809607490         1.809607490
Cu            5.370159243         0.000000000         1.814980737
Cu            5.370159243         1.814980737         0.000000000
Cu            3.601986204         0.000000000         3.601986204
Cu            3.620229201         1.823156200         5.394846018
Cu            5.390629104         0.000000000         5.390629104
Cu            5.394846018         1.823156200         3.620229201
Cu            3.608483231         0.000000000         7.153942895
Cu            3.598772524         1.816048285         8.926664926
Cu            5.332369781         0.000000000         8.884707483
Cu            5.398420530         1.815859998         7.174156443
Cu            3.510598844         0.000000000        10.580344050
Cu            3.622484079         3.622484079        -7.176852141
Cu            3.623314495         5.409456616        -5.409456616
Cu            5.409456616         3.623314495        -5.409456616
Cu            3.619654245         3.619654245        -3.619654245
Cu            3.620229201         5.394846018        -1.823156200
Cu            5.394846018         3.620229201        -1.823156200
Cu            5.409456616         5.409456616        -3.623314495
Cu            3.601986204         3.601986204         0.000000000
Cu            3.620229201         5.394846018         1.823156200
Cu            5.394846018         3.620229201         1.823156200
Cu            5.390629104         5.390629104         0.000000000
Cu            3.619654245         3.619654245         3.619654245
Cu            3.623314495         5.409456616         5.409456616
Cu            5.409456616         3.623314495         5.409456616
Cu            5.409456616         5.409456616         3.623314495
Cu            3.622484079         3.622484079         7.176852141
Cu            3.622484079         7.176852141        -3.622484079
Cu            3.598772524         8.926664926        -1.816048285
Cu            5.398420530         7.174156443        -1.815859998
Cu            3.608483231         7.153942895         0.000000000
Cu            3.598772524         8.926664926         1.816048285
Cu            5.398420530         7.174156443         1.815859998
Cu            5.332369781         8.884707483         0.000000000
Cu            3.622484079         7.176852141         3.622484079
Cu            3.510598844        10.580344050         0.000000000
Cu            7.174156443        -5.398420530        -1.815859998
Cu            7.118163567        -7.118163567         0.000000000
Cu            7.174156443        -5.398420530         1.815859998
Cu            8.884707483        -5.332369781         0.000000000
Cu            7.174156443        -1.815859998        -5.398420530
Cu            7.176852141        -3.622484079        -3.622484079
Cu            7.144083213        -1.823872282        -1.823872282
Cu            8.926664926        -3.598772524        -1.816048285
Cu            8.926664926        -1.816048285        -3.598772524
Cu            7.153942895        -3.608483231         0.000000000
Cu            7.144083213        -1.823872282         1.823872282
Cu            8.926664926        -3.598772524         1.816048285
Cu            8.870524591        -1.786345120         0.000000000
Cu            7.176852141        -3.622484079         3.622484079
Cu            7.174156443        -1.815859998         5.398420530
Cu            8.926664926        -1.816048285         3.598772524
Cu            7.118163567         0.000000000        -7.118163567
Cu            7.174156443         1.815859998        -5.398420530
Cu            8.884707483         0.000000000        -5.332369781
Cu            7.153942895         0.000000000        -3.608483231
Cu            7.144083213         1.823872282        -1.823872282
Cu            8.870524591         0.000000000        -1.786345120
Cu            8.926664926         1.816048285        -3.598772524
Cu            7.100423556         0.000000000         0.000000000
Cu            7.144083213         1.823872282         1.823872282
Cu            8.870524591         0.000000000         1.786345120
Cu            8.870524591         1.786345120         0.000000000
Cu            7.153942895         0.000000000         3.608483231
Cu            7.174156443         1.815859998         5.398420530
Cu            8.884707483         0.000000000         5.332369781
Cu            8.926664926         1.816048285         3.598772524
Cu            7.118163567         0.000000000         7.118163567
Cu            7.176852141         3.622484079        -3.622484079
Cu            7.174156443         5.398420530        -1.815859998
Cu            8.926664926         3.598772524        -1.816048285
Cu            7.153942895         3.608483231         0.000000000
Cu            7.174156443         5.398420530         1.815859998
Cu            8.926664926         3.598772524         1.816048285
Cu            8.884707483         5.332369781         0.000000000
Cu            7.176852141         3.622484079         3.622484079
Cu            7.118163567         7.118163567         0.000000000
Cu           10.626075827        -1.755518889        -1.755518889
Cu           10.580344050        -3.510598844         0.000000000
Cu           10.626075827        -1.755518889         1.755518889
Cu           10.580344050         0.000000000        -3.510598844