675
energy_gulp=-2202.26418870
Cu          -10.641790896        -5.310123585        -1.780427238
Cu           -8.927610716        -7.139430639        -1.794812649
Cu           -8.965693307        -5.387475782        -3.598282948
Cu          -10.641790896        -5.310123585         1.780427238
Cu           -8.927610716        -7.139430639         1.794812649
Cu           -8.961088221        -5.391689109        -0.000000000
Cu           -8.965693307        -5.387475782         3.598282948
Cu          -10.641790896        -1.780427238        -5.310123585
Cu           -8.965693307        -3.598282948        -5.387475782
Cu           -8.927610716        -1.794812649        -7.139430639
Cu          -10.674218550        -3.547665780        -3.547665780
Cu          -10.753635667        -1.786258933        -1.786258933
Cu           -8.938652866        -3.569359176        -1.781916661
Cu           -8.938652866        -1.781916661        -3.569359176
Cu          -10.735310860        -3.562899722        -0.000000000
Cu          -10.753635667        -1.786258933         1.786258933
Cu           -8.938652866        -3.569359176         1.781916661
Cu           -8.973691497        -1.780858820        -0.000000000
Cu          -10.674218550        -3.547665780         3.547665780
Cu          -10.641790896        -1.780427238         5.310123585
Cu           -8.965693307        -3.598282948         5.387475782
Cu           -8.938652866        -1.781916661         3.569359176
Cu           -8.927610716        -1.794812649         7.139430639
Cu          -10.641790896         1.780427238        -5.310123585
Cu           -8.961088221        -0.000000000        -5.391689109
Cu           -8.927610716         1.794812649        -7.139430639
Cu          -10.735310860        -0.000000000        -3.562899722
Cu          -10.753635667         1.786258933        -1.786258933
Cu           -8.973691497        -0.000000000        -1.780858820
Cu           -8.938652866         1.781916661        -3.569359176
Cu          -10.772379099        -0.000000000        -0.000000000
Cu          -10.753635667         1.786258933         1.786258933
Cu           -8.973691497        -0.000000000         1.780858820
Cu           -8.973691497         1.780858820        -0.000000000
Cu          -10.735310860        -0.000000000         3.562899722
Cu          -10.641790896         1.780427238         5.310123585
Cu           -8.961088221        -0.000000000         5.391689109
Cu           -8.938652866         1.781916661         3.569359176
Cu           -8.927610716         1.794812649         7.139430639
Cu           -8.965693307         3.598282948        -5.387475782
Cu          -10.674218550         3.547665780        -3.547665780
Cu          -10.641790896         5.310123585        -1.780427238
Cu           -8.938652866         3.569359176        -1.781916661
Cu           -8.965693307         5.387475782        -3.598282948
Cu          -10.735310860         3.562899722        -0.000000000
Cu          -10.641790896         5.310123585         1.780427238
Cu           -8.938652866         3.569359176         1.781916661
Cu           -8.961088221         5.391689109        -0.000000000
Cu          -10.674218550         3.547665780         3.547665780
Cu           -8.965693307         3.598282948         5.387475782
Cu           -8.965693307         5.387475782         3.598282948
Cu           -8.927610716         7.139430639        -1.794812649
Cu           -8.927610716         7.139430639         1.794812649
Cu           -7.139430639        -8.927610716        -1.794812649
Cu           -5.310123585       -10.641790896        -1.780427238
Cu           -5.387475782        -8.965693307        -3.598282948
Cu           -7.139430639        -8.927610716         1.794812649
Cu           -5.310123585       -10.641790896         1.780427238
Cu           -5.391689109        -8.961088221        -0.000000000
Cu           -5.387475782        -8.965693307         3.598282948
Cu           -7.198173339        -5.408004317        -5.408004317
Cu           -5.408004317        -7.198173339        -5.408004317
Cu           -5.408004317        -5.408004317        -7.198173339
Cu           -7.193069168        -7.193069168        -3.605651148
Cu           -7.183943015        -5.397551876        -1.809119386
Cu           -5.397551876        -7.183943015        -1.809119386
Cu           -5.411938568        -5.411938568        -3.620521630
Cu           -7.199920526        -7.199920526        -0.000000000
Cu           -7.183943015        -5.397551876         1.809119386
Cu           -5.397551876        -7.183943015         1.809119386
Cu           -5.400235762        -5.400235762        -0.000000000
Cu           -7.193069168        -7.193069168         3.605651148
Cu           -7.198173339        -5.408004317         5.408004317
Cu           -5.408004317        -7.198173339         5.408004317
Cu           -5.411938568        -5.411938568         3.620521630
Cu           -5.408004317        -5.408004317         7.198173339
Cu           -7.139430639        -1.794812649        -8.927610716
Cu           -5.387475782        -3.598282948        -8.965693307
Cu           -5.310123585        -1.780427238       -10.641790896
Cu           -7.193069168        -3.605651148        -7.193069168
Cu           -7.183943015        -1.809119386        -5.397551876
Cu           -5.411938568        -3.620521630        -5.411938568
Cu           -5.397551876        -1.809119386        -7.183943015
Cu           -7.188235970        -3.610388492        -3.610388492
Cu           -7.157404660        -1.791085901        -1.791085901
Cu           -5.390865495        -3.605212824        -1.808793800
Cu           -5.390865495        -1.808793800        -3.605212824
Cu           -7.165164935        -3.595340146        -0.000000000
Cu           -7.157404660        -1.791085901         1.791085901
Cu           -5.390865495        -3.605212824         1.808793800
Cu           -5.371494904        -1.801313061        -0.000000000
Cu           -7.188235970        -3.610388492         3.610388492
Cu           -7.183943015        -1.809119386         5.397551876
Cu           -5.411938568        -3.620521630         5.411938568
Cu           -5.390865495        -1.808793800         3.605212824
Cu           -7.193069168        -3.605651148         7.193069168
Cu           -7.139430639        -1.794812649         8.927610716
Cu           -5.387475782        -3.598282948         8.965693307
Cu           -5.397551876        -1.809119386         7.183943015
Cu           -5.310123585        -1.780427238        10.641790896
Cu           -7.139430639         1.794812649        -8.927610716
Cu           -5.391689109        -0.000000000        -8.961088221
Cu           -5.310123585         1.780427238       -10.641790896
Cu           -7.199920526        -0.000000000        -7.199920526
Cu           -7.183943015         1.809119386        -5.397551876
Cu           -5.400235762        -0.000000000        -5.400235762
Cu           -5.397551876         1.809119386        -7.183943015
Cu           -7.165164935        -0.000000000        -3.595340146
Cu           -7.157404660         1.791085901        -1.791085901
Cu           -5.371494904        -0.000000000        -1.801313061
Cu           -5.390865495         1.808793800        -3.605212824
Cu           -7.162242753        -0.000000000        -0.000000000
Cu           -7.157404660         1.791085901         1.791085901
Cu           -5.371494904        -0.000000000         1.801313061
Cu           -5.371494904         1.801313061        -0.000000000
Cu           -7.165164935        -0.000000000         3.595340146
Cu           -7.183943015         1.809119386         5.397551876
Cu           -5.400235762        -0.000000000         5.400235762
Cu           -5.390865495         1.808793800         3.605212824
Cu           -7.199920526        -0.000000000         7.199920526
Cu           -7.139430639         1.794812649         8.927610716
Cu           -5.391689109        -0.000000000         8.961088221
Cu           -5.397551876         1.809119386         7.183943015
Cu           -5.310123585         1.780427238        10.641790896
Cu           -5.387475782         3.598282948        -8.965693307
Cu           -7.193069168         3.605651148        -7.193069168
Cu           -7.198173339         5.408004317        -5.408004317
Cu           -5.411938568         3.620521630        -5.411938568
Cu           -5.408004317         5.408004317        -7.198173339
Cu           -7.188235970         3.610388492        -3.610388492
Cu           -7.183943015         5.397551876        -1.809119386
Cu           -5.390865495         3.605212824        -1.808793800
Cu           -5.411938568         5.411938568        -3.620521630
Cu           -7.165164935         3.595340146        -0.000000000
Cu           -7.183943015         5.397551876         1.809119386
Cu           -5.390865495         3.605212824         1.808793800
Cu           -5.400235762         5.400235762         0.000000000
Cu           -7.188235970         3.610388492         3.610388492
Cu           -7.198173339         5.408004317         5.408004317
Cu           -5.411938568         3.620521630         5.411938568
Cu           -5.411938568         5.411938568         3.620521630
Cu           -7.193069168         3.605651148         7.193069168
Cu           -5.387475782         3.598282948         8.965693307
Cu           -5.408004317         5.408004317         7.198173339
Cu           -5.408004317         7.198173339        -5.408004317
Cu           -7.193069168         7.193069168        -3.605651148
Cu           -7.139430639         8.927610716        -1.794812649
Cu           -5.397551876         7.183943015        -1.809119386
Cu           -5.387475782         8.965693307        -3.598282948
Cu           -7.199920526         7.199920526         0.000000000
Cu           -7.139430639         8.927610716         1.794812649
Cu           -5.397551876         7.183943015         1.809119386
Cu           -5.391689109         8.961088221         0.000000000
Cu           -7.193069168         7.193069168         3.605651148
Cu           -5.408004317         7.198173339         5.408004317
Cu           -5.387475782         8.965693307         3.598282948
Cu           -5.310123585        10.641790896        -1.780427238
Cu           -5.310123585        10.641790896         1.780427238
Cu           -3.598282948        -8.965693307        -5.387475782
Cu           -1.780427238       -10.641790896        -5.310123585
Cu           -1.794812649        -8.927610716        -7.139430639
Cu           -3.547665780       -10.674218550        -3.547665780
Cu           -3.569359176        -8.938652866        -1.781916661
Cu           -1.786258933       -10.753635667        -1.786258933
Cu           -1.781916661        -8.938652866        -3.569359176
Cu           -3.562899722       -10.735310860        -0.000000000
Cu           -3.569359176        -8.938652866         1.781916661
Cu           -1.786258933       -10.753635667         1.786258933
Cu           -1.780858820        -8.973691497        -0.000000000
Cu           -3.547665780       -10.674218550         3.547665780
Cu           -3.598282948        -8.965693307         5.387475782
Cu           -1.780427238       -10.641790896         5.310123585
Cu           -1.781916661        -8.938652866         3.569359176
Cu           -1.794812649        -8.927610716         7.139430639
Cu           -3.598282948        -5.387475782        -8.965693307
Cu           -1.794812649        -7.139430639        -8.927610716
Cu           -1.780427238        -5.310123585       -10.641790896
Cu           -3.605651148        -7.193069168        -7.193069168
Cu           -3.620521630        -5.411938568        -5.411938568
Cu           -1.809119386        -7.183943015        -5.397551876
Cu           -1.809119386        -5.397551876        -7.183943015
Cu           -3.610388492        -7.188235970        -3.610388492
Cu           -3.605212824        -5.390865495        -1.808793800
Cu           -1.791085901        -7.157404660        -1.791085901
Cu           -1.808793800        -5.390865495        -3.605212824
Cu           -3.595340146        -7.165164935        -0.000000000
Cu           -3.605212824        -5.390865495         1.808793800
Cu           -1.791085901        -7.157404660         1.791085901
Cu           -1.801313061        -5.371494904        -0.000000000
Cu           -3.610388492        -7.188235970         3.610388492
Cu           -3.620521630        -5.411938568         5.411938568
Cu           -1.809119386        -7.183943015         5.397551876
Cu           -1.808793800        -5.390865495         3.605212824
Cu           -3.605651148        -7.193069168         7.193069168
Cu           -3.598282948        -5.387475782         8.965693307
Cu           -1.794812649        -7.139430639         8.927610716
Cu           -1.809119386        -5.397551876         7.183943015
Cu           -1.780427238        -5.310123585        10.641790896
Cu           -3.547665780        -3.547665780       -10.674218550
Cu           -3.569359176        -1.781916661        -8.938652866
Cu           -1.781916661        -3.569359176        -8.938652866
Cu           -1.786258933        -1.786258933       -10.753635667
Cu           -3.610388492        -3.610388492        -7.188235970
Cu           -3.605212824        -1.808793800        -5.390865495
Cu           -1.808793800        -3.605212824        -5.390865495
Cu           -1.791085901        -1.791085901        -7.157404660
Cu           -3.609174886        -3.609174886        -3.609174886
Cu           -3.594425638        -1.804624673        -1.804624673
Cu           -1.804624673        -3.594425638        -1.804624673
Cu           -1.804624673        -1.804624673        -3.594425638
Cu           -3.600721281        -3.600721281        -0.000000000
Cu           -3.594425638        -1.804624673         1.804624673
Cu           -1.804624673        -3.594425638         1.804624673
Cu           -1.800080792        -1.800080792        -0.000000000
Cu           -3.609174886        -3.609174886         3.609174886
Cu           -3.605212824        -1.808793800         5.390865495
Cu           -1.808793800        -3.605212824         5.390865495
Cu           -1.804624673        -1.804624673         3.594425638
Cu           -3.610388492        -3.610388492         7.188235970
Cu           -3.569359176        -1.781916661         8.938652866
Cu           -1.781916661        -3.569359176         8.938652866
Cu           -1.791085901        -1.791085901         7.157404660
Cu           -3.547665780        -3.547665780        10.674218550
Cu           -1.786258933        -1.786258933        10.753635667
Cu           -3.562899722         0.000000000       -10.735310860
Cu           -3.569359176         1.781916661        -8.938652866
Cu           -1.780858820         0.000000000        -8.973691497
Cu           -1.786258933         1.786258933       -10.753635667
Cu           -3.595340146         0.000000000        -7.165164935
Cu           -3.605212824         1.808793800        -5.390865495
Cu           -1.801313061         0.000000000        -5.371494904
Cu           -1.791085901         1.791085901        -7.157404660
Cu           -3.600721281        -0.000000000        -3.600721281
Cu           -3.594425638         1.804624673        -1.804624673
Cu           -1.800080792        -0.000000000        -1.800080792
Cu           -1.804624673         1.804624673        -3.594425638
Cu           -3.585479510        -0.000000000        -0.000000000
Cu           -3.594425638         1.804624673         1.804624673
Cu           -1.800080792        -0.000000000         1.800080792
Cu           -1.800080792         1.800080792         0.000000000
Cu           -3.600721281        -0.000000000         3.600721281
Cu           -3.605212824         1.808793800         5.390865495
Cu           -1.801313061        -0.000000000         5.371494904
Cu           -1.804624673         1.804624673         3.594425638
Cu           -3.595340146        -0.000000000         7.165164935
Cu           -3.569359176         1.781916661         8.938652866
Cu           -1.780858820        -0.000000000         8.973691497
Cu           -1.791085901         1.791085901         7.157404660
Cu           -3.562899722        -0.000000000        10.735310860
Cu           -1.786258933         1.786258933        10.753635667
Cu           -3.547665780         3.547665780       -10.674218550
Cu           -3.598282948         5.387475782        -8.965693307
Cu           -1.781916661         3.569359176        -8.938652866
Cu           -1.780427238         5.310123585       -10.641790896
Cu           -3.610388492         3.610388492        -7.188235970
Cu           -3.620521630         5.411938568        -5.411938568
Cu           -1.808793800         3.605212824        -5.390865495
Cu           -1.809119386         5.397551876        -7.183943015
Cu           -3.609174886         3.609174886        -3.609174886
Cu           -3.605212824         5.390865495        -1.808793800
Cu           -1.804624673         3.594425638        -1.804624673
Cu           -1.808793800         5.390865495        -3.605212824
Cu           -3.600721281         3.600721281         0.000000000
Cu           -3.605212824         5.390865495         1.808793800
Cu           -1.804624673         3.594425638         1.804624673
Cu           -1.801313061         5.371494904         0.000000000
Cu           -3.609174886         3.609174886         3.609174886
Cu           -3.620521630         5.411938568         5.411938568
Cu           -1.808793800         3.605212824         5.390865495
Cu           -1.808793800         5.390865495         3.605212824
Cu           -3.610388492         3.610388492         7.188235970
Cu           -3.598282948         5.387475782         8.965693307
Cu           -1.781916661         3.569359176         8.938652866
Cu           -1.809119386         5.397551876         7.183943015
Cu           -3.547665780         3.547665780        10.674218550
Cu           -1.780427238         5.310123585        10.641790896
Cu           -1.794812649         7.139430639        -8.927610716
Cu           -3.605651148         7.193069168        -7.193069168
Cu           -3.598282948         8.965693307        -5.387475782
Cu           -1.809119386         7.183943015        -5.397551876
Cu           -1.794812649         8.927610716        -7.139430639
Cu           -3.610388492         7.188235970        -3.610388492
Cu           -3.569359176         8.938652866        -1.781916661
Cu           -1.791085901         7.157404660        -1.791085901
Cu           -1.781916661         8.938652866        -3.569359176
Cu           -3.595340146         7.165164935         0.000000000
Cu           -3.569359176         8.938652866         1.781916661
Cu           -1.791085901         7.157404660         1.791085901
Cu           -1.780858820         8.973691497         0.000000000
Cu           -3.610388492         7.188235970         3.610388492
Cu           -3.598282948         8.965693307         5.387475782
Cu           -1.809119386         7.183943015         5.397551876
Cu           -1.781916661         8.938652866         3.569359176
Cu           -3.605651148         7.193069168         7.193069168
Cu           -1.794812649         7.139430639         8.927610716
Cu           -1.794812649         8.927610716         7.139430639
Cu           -1.780427238        10.641790896        -5.310123585
Cu           -3.547665780        10.674218550        -3.547665780
Cu           -1.786258933        10.753635667        -1.786258933
Cu           -3.562899722        10.735310860         0.000000000
Cu           -1.786258933        10.753635667         1.786258933
Cu           -3.547665780        10.674218550         3.547665780
Cu           -1.780427238        10.641790896         5.310123585
Cu            0.000000000        -8.961088221        -5.391689109
Cu            1.780427238       -10.641790896        -5.310123585
Cu            1.794812649        -8.927610716        -7.139430639
Cu            0.000000000       -10.735310860        -3.562899722
Cu            0.000000000        -8.973691497        -1.780858820
Cu            1.786258933       -10.753635667        -1.786258933
Cu            1.781916661        -8.938652866        -3.569359176
Cu            0.000000000       -10.772379099        -0.000000000
Cu            0.000000000        -8.973691497         1.780858820
Cu            1.786258933       -10.753635667         1.786258933
Cu            1.780858820        -8.973691497        -0.000000000
Cu            0.000000000       -10.735310860         3.562899722
Cu            0.000000000        -8.961088221         5.391689109
Cu            1.780427238       -10.641790896         5.310123585
Cu            1.781916661        -8.938652866         3.569359176
Cu            1.794812649        -8.927610716         7.139430639
Cu            0.000000000        -5.391689109        -8.961088221
Cu            1.794812649        -7.139430639        -8.927610716
Cu            1.780427238        -5.310123585       -10.641790896
Cu            0.000000000        -7.199920526        -7.199920526
Cu            0.000000000        -5.400235762        -5.400235762
Cu            1.809119386        -7.183943015        -5.397551876
Cu            1.809119386        -5.397551876        -7.183943015
Cu            0.000000000        -7.165164935        -3.595340146
Cu            0.000000000        -5.371494904        -1.801313061
Cu            1.791085901        -7.157404660        -1.791085901
Cu            1.808793800        -5.390865495        -3.605212824
Cu            0.000000000        -7.162242753        -0.000000000
Cu            0.000000000        -5.371494904         1.801313061
Cu            1.791085901        -7.157404660         1.791085901
Cu            1.801313061        -5.371494904         0.000000000
Cu            0.000000000        -7.165164935         3.595340146
Cu            0.000000000        -5.400235762         5.400235762
Cu            1.809119386        -7.183943015         5.397551876
Cu            1.808793800        -5.390865495         3.605212824
Cu            0.000000000        -7.199920526         7.199920526
Cu            0.000000000        -5.391689109         8.961088221
Cu            1.794812649        -7.139430639         8.927610716
Cu            1.809119386        -5.397551876         7.183943015
Cu            1.780427238        -5.310123585        10.641790896
Cu            0.000000000        -3.562899722       -10.735310860
Cu            0.000000000        -1.780858820        -8.973691497
Cu            1.781916661        -3.569359176        -8.938652866
Cu            1.786258933        -1.786258933       -10.753635667
Cu            0.000000000        -3.595340146        -7.165164935
Cu            0.000000000        -1.801313061        -5.371494904
Cu            1.808793800        -3.605212824        -5.390865495
Cu            1.791085901        -1.791085901        -7.157404660
Cu            0.000000000        -3.600721281        -3.600721281
Cu            0.000000000        -1.800080792        -1.800080792
Cu            1.804624673        -3.594425638        -1.804624673
Cu            1.804624673        -1.804624673        -3.594425638
Cu            0.000000000        -3.585479510        -0.000000000
Cu            0.000000000        -1.800080792         1.800080792
Cu            1.804624673        -3.594425638         1.804624673
Cu            1.800080792        -1.800080792         0.000000000
Cu            0.000000000        -3.600721281         3.600721281
Cu           -0.000000000        -1.801313061         5.371494904
Cu            1.808793800        -3.605212824         5.390865495
Cu            1.804624673        -1.804624673         3.594425638
Cu           -0.000000000        -3.595340146         7.165164935
Cu           -0.000000000        -1.780858820         8.973691497
Cu            1.781916661        -3.569359176         8.938652866
Cu            1.791085901        -1.791085901         7.157404660
Cu           -0.000000000        -3.562899722        10.735310860
Cu            1.786258933        -1.786258933        10.753635667
Cu            0.000000000         0.000000000       -10.772379099
Cu            0.000000000         1.780858820        -8.973691497
Cu            1.780858820         0.000000000        -8.973691497
Cu            1.786258933         1.786258933       -10.753635667
Cu            0.000000000         0.000000000        -7.162242753
Cu            0.000000000         1.801313061        -5.371494904
Cu            1.801313061         0.000000000        -5.371494904
Cu            1.791085901         1.791085901        -7.157404660
Cu            0.000000000         0.000000000        -3.585479510
Cu           -0.000000000         1.800080792        -1.800080792
Cu            1.800080792         0.000000000        -1.800080792
Cu            1.804624673         1.804624673        -3.594425638
Cu            0.000000000         0.000000000         0.000000000
Cu           -0.000000000         1.800080792         1.800080792
Cu            1.800080792         0.000000000         1.800080792
Cu            1.800080792         1.800080792         0.000000000
Cu           -0.000000000         0.000000000         3.585479510
Cu           -0.000000000         1.801313061         5.371494904
Cu            1.801313061         0.000000000         5.371494904
Cu            1.804624673         1.804624673         3.594425638
Cu           -0.000000000        -0.000000000         7.162242753
Cu           -0.000000000         1.780858820         8.973691497
Cu            1.780858820         0.000000000         8.973691497
Cu            1.791085901         1.791085901         7.157404660
Cu           -0.000000000        -0.000000000        10.772379099
Cu            1.786258933         1.786258933        10.753635667
Cu            0.000000000         3.562899722       -10.735310860
Cu           -0.000000000         5.391689109        -8.961088221
Cu            1.781916661         3.569359176        -8.938652866
Cu            1.780427238         5.310123585       -10.641790896
Cu           -0.000000000         3.595340146        -7.165164935
Cu           -0.000000000         5.400235762        -5.400235762
Cu            1.808793800         3.605212824        -5.390865495
Cu            1.809119386         5.397551876        -7.183943015
Cu           -0.000000000         3.600721281        -3.600721281
Cu           -0.000000000         5.371494904        -1.801313061
Cu            1.804624673         3.594425638        -1.804624673
Cu            1.808793800         5.390865495        -3.605212824
Cu           -0.000000000         3.585479510         0.000000000
Cu           -0.000000000         5.371494904         1.801313061
Cu            1.804624673         3.594425638         1.804624673
Cu            1.801313061         5.371494904         0.000000000
Cu           -0.000000000         3.600721281         3.600721281
Cu           -0.000000000         5.400235762         5.400235762
Cu            1.808793800         3.605212824         5.390865495
Cu            1.808793800         5.390865495         3.605212824
Cu           -0.000000000         3.595340146         7.165164935
Cu           -0.000000000         5.391689109         8.961088221
Cu            1.781916661         3.569359176         8.938652866
Cu            1.809119386         5.397551876         7.183943015
Cu           -0.000000000         3.562899722        10.735310860
Cu            1.780427238         5.310123585        10.641790896
Cu            1.794812649         7.139430639        -8.927610716
Cu           -0.000000000         7.199920526        -7.199920526
Cu           -0.000000000         8.961088221        -5.391689109
Cu            1.809119386         7.183943015        -5.397551876
Cu            1.794812649         8.927610716        -7.139430639
Cu           -0.000000000         7.165164935        -3.595340146
Cu           -0.000000000         8.973691497        -1.780858820
Cu            1.791085901         7.157404660        -1.791085901
Cu            1.781916661         8.938652866        -3.569359176
Cu           -0.000000000         7.162242753         0.000000000
Cu           -0.000000000         8.973691497         1.780858820
Cu            1.791085901         7.157404660         1.791085901
Cu            1.780858820         8.973691497         0.000000000
Cu           -0.000000000         7.165164935         3.595340146
Cu           -0.000000000         8.961088221         5.391689109
Cu            1.809119386         7.183943015         5.397551876
Cu            1.781916661         8.938652866         3.569359176
Cu           -0.000000000         7.199920526         7.199920526
Cu            1.794812649         7.139430639         8.927610716
Cu            1.794812649         8.927610716         7.139430639
Cu            1.780427238        10.641790896        -5.310123585
Cu           -0.000000000        10.735310860        -3.562899722
Cu            1.786258933        10.753635667        -1.786258933
Cu           -0.000000000        10.772379099         0.000000000
Cu            1.786258933        10.753635667         1.786258933
Cu           -0.000000000        10.735310860         3.562899722
Cu            1.780427238        10.641790896         5.310123585
Cu            3.598282948        -8.965693307        -5.387475782
Cu            3.547665780       -10.674218550        -3.547665780
Cu            3.569359176        -8.938652866        -1.781916661
Cu            5.310123585       -10.641790896        -1.780427238
Cu            5.387475782        -8.965693307        -3.598282948
Cu            3.562899722       -10.735310860        -0.000000000