711
energy_gulp=-2323.29435764
Cu           -8.896817013        -8.896817013        -0.000000000
Cu          -10.677295347        -5.331525226        -1.759583342
Cu           -8.955150019        -7.169626567        -1.817963460
Cu           -8.980278734        -5.382911749        -3.598443742
Cu          -10.611602497        -7.089050814        -0.000000000
Cu          -10.677295347        -5.331525226         1.759583342
Cu           -8.955150019        -7.169626567         1.817963460
Cu           -8.920594326        -5.358135729        -0.000000000
Cu           -8.980278734        -5.382911749         3.598443742
Cu          -10.677295347        -1.759583342        -5.331525226
Cu           -8.980278734        -3.598443742        -5.382911749
Cu           -8.955150019        -1.817963460        -7.169626567
Cu          -10.689865785        -3.546066874        -3.546066874
Cu          -10.762226906        -1.784843558        -1.784843558
Cu           -8.951527590        -3.571370674        -1.786588534
Cu           -8.951527590        -1.786588534        -3.571370674
Cu          -10.748611059        -3.569499424        -0.000000000
Cu          -10.762226906        -1.784843558         1.784843558
Cu           -8.951527590        -3.571370674         1.786588534
Cu           -8.980754343        -1.784648484        -0.000000000
Cu          -10.689865785        -3.546066874         3.546066874
Cu          -10.677295347        -1.759583342         5.331525226
Cu           -8.980278734        -3.598443742         5.382911749
Cu           -8.951527590        -1.786588534         3.571370674
Cu           -8.955150019        -1.817963460         7.169626567
Cu           -8.896817013        -0.000000000        -8.896817013
Cu          -10.611602497        -0.000000000        -7.089050814
Cu          -10.677295347         1.759583342        -5.331525226
Cu           -8.920594326        -0.000000000        -5.358135729
Cu           -8.955150019         1.817963460        -7.169626567
Cu          -10.748611059        -0.000000000        -3.569499424
Cu          -10.762226906         1.784843558        -1.784843558
Cu           -8.980754343        -0.000000000        -1.784648484
Cu           -8.951527590         1.786588534        -3.571370674
Cu          -10.775702595        -0.000000000        -0.000000000
Cu          -10.762226906         1.784843558         1.784843558
Cu           -8.980754343        -0.000000000         1.784648484
Cu           -8.980754343         1.784648484        -0.000000000
Cu          -10.748611059        -0.000000000         3.569499424
Cu          -10.677295347         1.759583342         5.331525226
Cu           -8.920594326        -0.000000000         5.358135729
Cu           -8.951527590         1.786588534         3.571370674
Cu          -10.611602497        -0.000000000         7.089050814
Cu           -8.896817013        -0.000000000         8.896817013
Cu           -8.955150019         1.817963460         7.169626567
Cu           -8.980278734         3.598443742        -5.382911749
Cu          -10.689865785         3.546066874        -3.546066874
Cu          -10.677295347         5.331525226        -1.759583342
Cu           -8.951527590         3.571370674        -1.786588534
Cu           -8.980278734         5.382911749        -3.598443742
Cu          -10.748611059         3.569499424        -0.000000000
Cu          -10.677295347         5.331525226         1.759583342
Cu           -8.951527590         3.571370674         1.786588534
Cu           -8.920594326         5.358135729         0.000000000
Cu          -10.689865785         3.546066874         3.546066874
Cu           -8.980278734         3.598443742         5.382911749
Cu           -8.980278734         5.382911749         3.598443742
Cu           -8.955150019         7.169626567        -1.817963460
Cu          -10.611602497         7.089050814         0.000000000
Cu           -8.955150019         7.169626567         1.817963460
Cu           -8.896817013         8.896817013         0.000000000
Cu           -7.169626567        -8.955150019        -1.817963460
Cu           -5.331525226       -10.677295347        -1.759583342
Cu           -5.382911749        -8.980278734        -3.598443742
Cu           -7.089050814       -10.611602497        -0.000000000
Cu           -7.169626567        -8.955150019         1.817963460
Cu           -5.331525226       -10.677295347         1.759583342
Cu           -5.358135729        -8.920594326        -0.000000000
Cu           -5.382911749        -8.980278734         3.598443742
Cu           -7.202654233        -5.407182047        -5.407182047
Cu           -5.407182047        -7.202654233        -5.407182047
Cu           -5.407182047        -5.407182047        -7.202654233
Cu           -7.192205308        -7.192205308        -3.622015144
Cu           -7.184812571        -5.398449495        -1.823595173
Cu           -5.398449495        -7.184812571        -1.823595173
Cu           -5.410556071        -5.410556071        -3.623815884
Cu           -7.174974294        -7.174974294        -0.000000000
Cu           -7.184812571        -5.398449495         1.823595173
Cu           -5.398449495        -7.184812571         1.823595173
Cu           -5.394760141        -5.394760141        -0.000000000
Cu           -7.192205308        -7.192205308         3.622015144
Cu           -7.202654233        -5.407182047         5.407182047
Cu           -5.407182047        -7.202654233         5.407182047
Cu           -5.410556071        -5.410556071         3.623815884
Cu           -5.407182047        -5.407182047         7.202654233
Cu           -7.169626567        -1.817963460        -8.955150019
Cu           -5.382911749        -3.598443742        -8.980278734
Cu           -5.331525226        -1.759583342       -10.677295347
Cu           -7.192205308        -3.622015144        -7.192205308
Cu           -7.184812571        -1.823595173        -5.398449495
Cu           -5.410556071        -3.623815884        -5.410556071
Cu           -5.398449495        -1.823595173        -7.184812571
Cu           -7.193743748        -3.610871752        -3.610871752
Cu           -7.164298053        -1.792427217        -1.792427217
Cu           -5.391399717        -3.604559754        -1.810690990
Cu           -5.391399717        -1.810690990        -3.604559754
Cu           -7.157170759        -3.584730422        -0.000000000
Cu           -7.164298053        -1.792427217         1.792427217
Cu           -5.391399717        -3.604559754         1.810690990
Cu           -5.372147382        -1.798250494        -0.000000000
Cu           -7.193743748        -3.610871752         3.610871752
Cu           -7.184812571        -1.823595173         5.398449495
Cu           -5.410556071        -3.623815884         5.410556071
Cu           -5.391399717        -1.810690990         3.604559754
Cu           -7.192205308        -3.622015144         7.192205308
Cu           -7.169626567        -1.817963460         8.955150019
Cu           -5.382911749        -3.598443742         8.980278734
Cu           -5.398449495        -1.823595173         7.184812571
Cu           -5.331525226        -1.759583342        10.677295347
Cu           -7.089050814        -0.000000000       -10.611602497
Cu           -7.169626567         1.817963460        -8.955150019
Cu           -5.358135729        -0.000000000        -8.920594326
Cu           -5.331525226         1.759583342       -10.677295347
Cu           -7.174974294        -0.000000000        -7.174974294
Cu           -7.184812571         1.823595173        -5.398449495
Cu           -5.394760141        -0.000000000        -5.394760141
Cu           -5.398449495         1.823595173        -7.184812571
Cu           -7.157170759        -0.000000000        -3.584730422
Cu           -7.164298053         1.792427217        -1.792427217
Cu           -5.372147382        -0.000000000        -1.798250494
Cu           -5.391399717         1.810690990        -3.604559754
Cu           -7.170297053        -0.000000000        -0.000000000
Cu           -7.164298053         1.792427217         1.792427217
Cu           -5.372147382        -0.000000000         1.798250494
Cu           -5.372147382         1.798250494        -0.000000000
Cu           -7.157170759        -0.000000000         3.584730422
Cu           -7.184812571         1.823595173         5.398449495
Cu           -5.394760141        -0.000000000         5.394760141
Cu           -5.391399717         1.810690990         3.604559754
Cu           -7.174974294        -0.000000000         7.174974294
Cu           -7.169626567         1.817963460         8.955150019
Cu           -5.358135729        -0.000000000         8.920594326
Cu           -5.398449495         1.823595173         7.184812571
Cu           -7.089050814        -0.000000000        10.611602497
Cu           -5.331525226         1.759583342        10.677295347
Cu           -5.382911749         3.598443742        -8.980278734
Cu           -7.192205308         3.622015144        -7.192205308
Cu           -7.202654233         5.407182047        -5.407182047
Cu           -5.410556071         3.623815884        -5.410556071
Cu           -5.407182047         5.407182047        -7.202654233
Cu           -7.193743748         3.610871752        -3.610871752
Cu           -7.184812571         5.398449495        -1.823595173
Cu           -5.391399717         3.604559754        -1.810690990
Cu           -5.410556071         5.410556071        -3.623815884
Cu           -7.157170759         3.584730422        -0.000000000
Cu           -7.184812571         5.398449495         1.823595173
Cu           -5.391399717         3.604559754         1.810690990
Cu           -5.394760141         5.394760141         0.000000000
Cu           -7.193743748         3.610871752         3.610871752
Cu           -7.202654233         5.407182047         5.407182047
Cu           -5.410556071         3.623815884         5.410556071
Cu           -5.410556071         5.410556071         3.623815884
Cu           -7.192205308         3.622015144         7.192205308
Cu           -5.382911749         3.598443742         8.980278734
Cu           -5.407182047         5.407182047         7.202654233
Cu           -5.407182047         7.202654233        -5.407182047
Cu           -7.192205308         7.192205308        -3.622015144
Cu           -7.169626567         8.955150019        -1.817963460
Cu           -5.398449495         7.184812571        -1.823595173
Cu           -5.382911749         8.980278734        -3.598443742
Cu           -7.174974294         7.174974294         0.000000000
Cu           -7.169626567         8.955150019         1.817963460
Cu           -5.398449495         7.184812571         1.823595173
Cu           -5.358135729         8.920594326         0.000000000
Cu           -7.192205308         7.192205308         3.622015144
Cu           -5.407182047         7.202654233         5.407182047
Cu           -5.382911749         8.980278734         3.598443742
Cu           -5.331525226        10.677295347        -1.759583342
Cu           -7.089050814        10.611602497         0.000000000
Cu           -5.331525226        10.677295347         1.759583342
Cu           -3.598443742        -8.980278734        -5.382911749
Cu           -1.759583342       -10.677295347        -5.331525226
Cu           -1.817963460        -8.955150019        -7.169626567
Cu           -3.546066874       -10.689865785        -3.546066874
Cu           -3.571370674        -8.951527590        -1.786588534
Cu           -1.784843558       -10.762226906        -1.784843558
Cu           -1.786588534        -8.951527590        -3.571370674
Cu           -3.569499424       -10.748611059        -0.000000000
Cu           -3.571370674        -8.951527590         1.786588534
Cu           -1.784843558       -10.762226906         1.784843558
Cu           -1.784648484        -8.980754343        -0.000000000
Cu           -3.546066874       -10.689865785         3.546066874
Cu           -3.598443742        -8.980278734         5.382911749
Cu           -1.759583342       -10.677295347         5.331525226
Cu           -1.786588534        -8.951527590         3.571370674
Cu           -1.817963460        -8.955150019         7.169626567
Cu           -3.598443742        -5.382911749        -8.980278734
Cu           -1.817963460        -7.169626567        -8.955150019
Cu           -1.759583342        -5.331525226       -10.677295347
Cu           -3.622015144        -7.192205308        -7.192205308
Cu           -3.623815884        -5.410556071        -5.410556071
Cu           -1.823595173        -7.184812571        -5.398449495
Cu           -1.823595173        -5.398449495        -7.184812571
Cu           -3.610871752        -7.193743748        -3.610871752
Cu           -3.604559754        -5.391399717        -1.810690990
Cu           -1.792427217        -7.164298053        -1.792427217
Cu           -1.810690990        -5.391399717        -3.604559754
Cu           -3.584730422        -7.157170759        -0.000000000
Cu           -3.604559754        -5.391399717         1.810690990
Cu           -1.792427217        -7.164298053         1.792427217
Cu           -1.798250494        -5.372147382        -0.000000000
Cu           -3.610871752        -7.193743748         3.610871752
Cu           -3.623815884        -5.410556071         5.410556071
Cu           -1.823595173        -7.184812571         5.398449495
Cu           -1.810690990        -5.391399717         3.604559754
Cu           -3.622015144        -7.192205308         7.192205308
Cu           -3.598443742        -5.382911749         8.980278734
Cu           -1.817963460        -7.169626567         8.955150019
Cu           -1.823595173        -5.398449495         7.184812571
Cu           -1.759583342        -5.331525226        10.677295347
Cu           -3.546066874        -3.546066874       -10.689865785
Cu           -3.571370674        -1.786588534        -8.951527590
Cu           -1.786588534        -3.571370674        -8.951527590
Cu           -1.784843558        -1.784843558       -10.762226906
Cu           -3.610871752        -3.610871752        -7.193743748
Cu           -3.604559754        -1.810690990        -5.391399717
Cu           -1.810690990        -3.604559754        -5.391399717
Cu           -1.792427217        -1.792427217        -7.164298053
Cu           -3.607979685        -3.607979685        -3.607979685
Cu           -3.594490015        -1.804283175        -1.804283175
Cu           -1.804283175        -3.594490015        -1.804283175
Cu           -1.804283175        -1.804283175        -3.594490015
Cu           -3.599952422        -3.599952422        -0.000000000
Cu           -3.594490015        -1.804283175         1.804283175
Cu           -1.804283175        -3.594490015         1.804283175
Cu           -1.799913842        -1.799913842        -0.000000000
Cu           -3.607979685        -3.607979685         3.607979685
Cu           -3.604559754        -1.810690990         5.391399717
Cu           -1.810690990        -3.604559754         5.391399717
Cu           -1.804283175        -1.804283175         3.594490015
Cu           -3.610871752        -3.610871752         7.193743748
Cu           -3.571370674        -1.786588534         8.951527590
Cu           -1.786588534        -3.571370674         8.951527590
Cu           -1.792427217        -1.792427217         7.164298053
Cu           -3.546066874        -3.546066874        10.689865785
Cu           -1.784843558        -1.784843558        10.762226906
Cu           -3.569499424         0.000000000       -10.748611059
Cu           -3.571370674         1.786588534        -8.951527590
Cu           -1.784648484         0.000000000        -8.980754343
Cu           -1.784843558         1.784843558       -10.762226906
Cu           -3.584730422         0.000000000        -7.157170759
Cu           -3.604559754         1.810690990        -5.391399717
Cu           -1.798250494         0.000000000        -5.372147382
Cu           -1.792427217         1.792427217        -7.164298053
Cu           -3.599952422        -0.000000000        -3.599952422
Cu           -3.594490015         1.804283175        -1.804283175
Cu           -1.799913842        -0.000000000        -1.799913842
Cu           -1.804283175         1.804283175        -3.594490015
Cu           -3.584048829        -0.000000000        -0.000000000
Cu           -3.594490015         1.804283175         1.804283175
Cu           -1.799913842        -0.000000000         1.799913842
Cu           -1.799913842         1.799913842         0.000000000
Cu           -3.599952422        -0.000000000         3.599952422
Cu           -3.604559754         1.810690990         5.391399717
Cu           -1.798250494        -0.000000000         5.372147382
Cu           -1.804283175         1.804283175         3.594490015
Cu           -3.584730422        -0.000000000         7.157170759
Cu           -3.571370674         1.786588534         8.951527590
Cu           -1.784648484        -0.000000000         8.980754343
Cu           -1.792427217         1.792427217         7.164298053
Cu           -3.569499424        -0.000000000        10.748611059
Cu           -1.784843558         1.784843558        10.762226906
Cu           -3.546066874         3.546066874       -10.689865785
Cu           -3.598443742         5.382911749        -8.980278734
Cu           -1.786588534         3.571370674        -8.951527590
Cu           -1.759583342         5.331525226       -10.677295347
Cu           -3.610871752         3.610871752        -7.193743748
Cu           -3.623815884         5.410556071        -5.410556071
Cu           -1.810690990         3.604559754        -5.391399717
Cu           -1.823595173         5.398449495        -7.184812571
Cu           -3.607979685         3.607979685        -3.607979685
Cu           -3.604559754         5.391399717        -1.810690990
Cu           -1.804283175         3.594490015        -1.804283175
Cu           -1.810690990         5.391399717        -3.604559754
Cu           -3.599952422         3.599952422         0.000000000
Cu           -3.604559754         5.391399717         1.810690990
Cu           -1.804283175         3.594490015         1.804283175
Cu           -1.798250494         5.372147382         0.000000000
Cu           -3.607979685         3.607979685         3.607979685
Cu           -3.623815884         5.410556071         5.410556071
Cu           -1.810690990         3.604559754         5.391399717
Cu           -1.810690990         5.391399717         3.604559754
Cu           -3.610871752         3.610871752         7.193743748
Cu           -3.598443742         5.382911749         8.980278734
Cu           -1.786588534         3.571370674         8.951527590
Cu           -1.823595173         5.398449495         7.184812571
Cu           -3.546066874         3.546066874        10.689865785
Cu           -1.759583342         5.331525226        10.677295347
Cu           -1.817963460         7.169626567        -8.955150019
Cu           -3.622015144         7.192205308        -7.192205308
Cu           -3.598443742         8.980278734        -5.382911749
Cu           -1.823595173         7.184812571        -5.398449495
Cu           -1.817963460         8.955150019        -7.169626567
Cu           -3.610871752         7.193743748        -3.610871752
Cu           -3.571370674         8.951527590        -1.786588534
Cu           -1.792427217         7.164298053        -1.792427217
Cu           -1.786588534         8.951527590        -3.571370674
Cu           -3.584730422         7.157170759         0.000000000
Cu           -3.571370674         8.951527590         1.786588534
Cu           -1.792427217         7.164298053         1.792427217
Cu           -1.784648484         8.980754343         0.000000000
Cu           -3.610871752         7.193743748         3.610871752
Cu           -3.598443742         8.980278734         5.382911749
Cu           -1.823595173         7.184812571         5.398449495
Cu           -1.786588534         8.951527590         3.571370674
Cu           -3.622015144         7.192205308         7.192205308
Cu           -1.817963460         7.169626567         8.955150019
Cu           -1.817963460         8.955150019         7.169626567
Cu           -1.759583342        10.677295347        -5.331525226
Cu           -3.546066874        10.689865785        -3.546066874
Cu           -1.784843558        10.762226906        -1.784843558
Cu           -3.569499424        10.748611059         0.000000000
Cu           -1.784843558        10.762226906         1.784843558
Cu           -3.546066874        10.689865785         3.546066874
Cu           -1.759583342        10.677295347         5.331525226
Cu            0.000000000        -8.896817013        -8.896817013
Cu            0.000000000       -10.611602497        -7.089050814
Cu            0.000000000        -8.920594326        -5.358135729
Cu            1.759583342       -10.677295347        -5.331525226
Cu            1.817963460        -8.955150019        -7.169626567
Cu            0.000000000       -10.748611059        -3.569499424
Cu            0.000000000        -8.980754343        -1.784648484
Cu            1.784843558       -10.762226906        -1.784843558
Cu            1.786588534        -8.951527590        -3.571370674
Cu            0.000000000       -10.775702595        -0.000000000
Cu            0.000000000        -8.980754343         1.784648484
Cu            1.784843558       -10.762226906         1.784843558
Cu            1.784648484        -8.980754343        -0.000000000
Cu            0.000000000       -10.748611059         3.569499424
Cu            0.000000000        -8.920594326         5.358135729
Cu            1.759583342       -10.677295347         5.331525226
Cu            1.786588534        -8.951527590         3.571370674
Cu            0.000000000       -10.611602497         7.089050814
Cu            0.000000000        -8.896817013         8.896817013
Cu            1.817963460        -8.955150019         7.169626567
Cu            0.000000000        -7.089050814       -10.611602497
Cu            0.000000000        -5.358135729        -8.920594326
Cu            1.817963460        -7.169626567        -8.955150019
Cu            1.759583342        -5.331525226       -10.677295347
Cu            0.000000000        -7.174974294        -7.174974294
Cu            0.000000000        -5.394760141        -5.394760141
Cu            1.823595173        -7.184812571        -5.398449495
Cu            1.823595173        -5.398449495        -7.184812571
Cu            0.000000000        -7.157170759        -3.584730422
Cu            0.000000000        -5.372147382        -1.798250494
Cu            1.792427217        -7.164298053        -1.792427217
Cu            1.810690990        -5.391399717        -3.604559754
Cu            0.000000000        -7.170297053        -0.000000000
Cu           -0.000000000        -5.372147382         1.798250494
Cu            1.792427217        -7.164298053         1.792427217
Cu            1.798250494        -5.372147382        -0.000000000
Cu            0.000000000        -7.157170759         3.584730422
Cu           -0.000000000        -5.394760141         5.394760141
Cu            1.823595173        -7.184812571         5.398449495
Cu            1.810690990        -5.391399717         3.604559754
Cu           -0.000000000        -7.174974294         7.174974294
Cu           -0.000000000        -5.358135729         8.920594326
Cu            1.817963460        -7.169626567         8.955150019
Cu            1.823595173        -5.398449495         7.184812571
Cu           -0.000000000        -7.089050814        10.611602497
Cu            1.759583342        -5.331525226        10.677295347
Cu            0.000000000        -3.569499424       -10.748611059
Cu           -0.000000000        -1.784648484        -8.980754343
Cu            1.786588534        -3.571370674        -8.951527590
Cu            1.784843558        -1.784843558       -10.762226906
Cu            0.000000000        -3.584730422        -7.157170759
Cu           -0.000000000        -1.798250494        -5.372147382
Cu            1.810690990        -3.604559754        -5.391399717
Cu            1.792427217        -1.792427217        -7.164298053
Cu           -0.000000000        -3.599952422        -3.599952422
Cu           -0.000000000        -1.799913842        -1.799913842
Cu            1.804283175        -3.594490015        -1.804283175
Cu            1.804283175        -1.804283175        -3.594490015
Cu           -0.000000000        -3.584048829        -0.000000000
Cu           -0.000000000        -1.799913842         1.799913842
Cu            1.804283175        -3.594490015         1.804283175
Cu            1.799913842        -1.799913842        -0.000000000
Cu           -0.000000000        -3.599952422         3.599952422
Cu           -0.000000000        -1.798250494         5.372147382
Cu            1.810690990        -3.604559754         5.391399717
Cu            1.804283175        -1.804283175         3.594490015
Cu           -0.000000000        -3.584730422         7.157170759
Cu           -0.000000000        -1.784648484         8.980754343
Cu            1.786588534        -3.571370674         8.951527590
Cu            1.792427217        -1.792427217         7.164298053
Cu           -0.000000000        -3.569499424        10.748611059
Cu            1.784843558        -1.784843558        10.762226906
Cu           -0.000000000         0.000000000       -10.775702595
Cu           -0.000000000         1.784648484        -8.980754343
Cu            1.784648484         0.000000000        -8.980754343
Cu            1.784843558         1.784843558       -10.762226906
Cu           -0.000000000         0.000000000        -7.170297053
Cu           -0.000000000         1.798250494        -5.372147382
Cu            1.798250494         0.000000000        -5.372147382
Cu            1.792427217         1.792427217        -7.164298053
Cu           -0.000000000         0.000000000        -3.584048829
Cu           -0.000000000         1.799913842        -1.799913842
Cu            1.799913842         0.000000000        -1.799913842
Cu            1.804283175         1.804283175        -3.594490015
Cu            0.000000000         0.000000000         0.000000000
Cu           -0.000000000         1.799913842         1.799913842
Cu            1.799913842         0.000000000         1.799913842
Cu            1.799913842         1.799913842         0.000000000
Cu           -0.000000000        -0.000000000         3.584048829
Cu           -0.000000000         1.798250494         5.372147382
Cu            1.798250494        -0.000000000         5.372147382
Cu            1.804283175         1.804283175         3.594490015
Cu           -0.000000000        -0.000000000         7.170297053
Cu           -0.000000000         1.784648484         8.980754343
Cu            1.784648484        -0.000000000         8.980754343
Cu            1.792427217         1.792427217         7.164298053
Cu           -0.000000000        -0.000000000        10.775702595
Cu            1.784843558         1.784843558        10.762226906
Cu           -0.000000000         3.569499424       -10.748611059
Cu           -0.000000000         5.358135729        -8.920594326
Cu            1.786588534         3.571370674        -8.951527590
Cu            1.759583342         5.331525226       -10.677295347
Cu           -0.000000000         3.584730422        -7.157170759
Cu           -0.000000000         5.394760141        -5.394760141
Cu            1.810690990         3.604559754        -5.391399717
Cu            1.823595173         5.398449495        -7.184812571
Cu           -0.000000000         3.599952422        -3.599952422
Cu           -0.000000000         5.372147382        -1.798250494
Cu            1.804283175         3.594490015        -1.804283175
Cu            1.810690990         5.391399717        -3.604559754
Cu           -0.000000000         3.584048829         0.000000000
Cu           -0.000000000         5.372147382         1.798250494
Cu            1.804283175         3.594490015         1.804283175
Cu            1.798250494         5.372147382         0.000000000
Cu           -0.000000000         3.599952422         3.599952422
Cu           -0.000000000         5.394760141         5.394760141
Cu            1.810690990         3.604559754         5.391399717
Cu            1.810690990         5.391399717         3.604559754
Cu           -0.000000000         3.584730422         7.157170759
Cu           -0.000000000         5.358135729         8.920594326
Cu            1.786588534         3.571370674         8.951527590
Cu            1.823595173         5.398449495         7.184812571
Cu           -0.000000000         3.569499424        10.748611059
Cu            1.759583342         5.331525226        10.677295347
Cu           -0.000000000         7.089050814       -10.611602497
Cu           -0.000000000         8.896817013        -8.896817013
Cu            1.817963460         7.169626567        -8.955150019
Cu           -0.000000000         7.174974294        -7.174974294
Cu           -0.000000000         8.920594326        -5.358135729
Cu            1.823595173         7.184812571        -5.398449495
Cu            1.817963460         8.955150019        -7.169626567
Cu           -0.000000000         7.157170759        -3.584730422
Cu           -0.000000000         8.980754343        -1.784648484
Cu            1.792427217         7.164298053        -1.792427217
Cu            1.786588534         8.951527590        -3.571370674
Cu           -0.000000000         7.170297053         0.000000000
Cu           -0.000000000         8.980754343         1.784648484
Cu            1.792427217         7.164298053         1.792427217
Cu            1.784648484         8.980754343         0.000000000