807
energy_gulp=-2644.13100459
Cu          -12.386714685        -5.299268693        -0.000000000
Cu          -12.444060100        -3.539765940        -1.756932655
Cu          -12.444060100        -1.756932655        -3.539765940
Cu          -12.444060100        -3.539765940         1.756932655
Cu          -12.504167127        -1.779117874        -0.000000000
Cu          -12.444060100        -1.756932655         3.539765940
Cu          -12.386714685        -0.000000000        -5.299268693
Cu          -12.504167127        -0.000000000        -1.779117874
Cu          -12.444060100         1.756932655        -3.539765940
Cu          -12.504167127        -0.000000000         1.779117874
Cu          -12.504167127         1.779117874        -0.000000000
Cu          -12.386714685        -0.000000000         5.299268693
Cu          -12.444060100         1.756932655         3.539765940
Cu          -12.444060100         3.539765940        -1.756932655
Cu          -12.444060100         3.539765940         1.756932655
Cu          -12.386714685         5.299268693        -0.000000000
Cu           -8.911472517        -8.911472517        -0.000000000
Cu          -10.733474551        -5.385780915        -1.816209755
Cu           -8.972297700        -7.190204140        -1.815621367
Cu           -8.982807273        -5.412074150        -3.624192661
Cu          -10.683984031        -7.121549194        -0.000000000
Cu          -10.733474551        -5.385780915         1.816209755
Cu           -8.972297700        -7.190204140         1.815621367
Cu           -8.958045534        -5.398577228        -0.000000000
Cu           -8.982807273        -5.412074150         3.624192661
Cu          -10.733474551        -1.816209755        -5.385780915
Cu           -8.982807273        -3.624192661        -5.412074150
Cu           -8.972297700        -1.815621367        -7.190204140
Cu          -10.749601181        -3.596743920        -3.596743920
Cu          -10.704966387        -1.785379087        -1.785379087
Cu           -8.955633786        -3.615472497        -1.824107245
Cu           -8.955633786        -1.824107245        -3.615472497
Cu          -10.686804949        -3.572026409        -0.000000000
Cu          -10.704966387        -1.785379087         1.785379087
Cu           -8.955633786        -3.615472497         1.824107245
Cu           -8.915134207        -1.797789110        -0.000000000
Cu          -10.749601181        -3.596743920         3.596743920
Cu          -10.733474551        -1.816209755         5.385780915
Cu           -8.982807273        -3.624192661         5.412074150
Cu           -8.955633786        -1.824107245         3.615472497
Cu           -8.972297700        -1.815621367         7.190204140
Cu           -8.911472517        -0.000000000        -8.911472517
Cu          -10.683984031        -0.000000000        -7.121549194
Cu          -10.733474551         1.816209755        -5.385780915
Cu           -8.958045534        -0.000000000        -5.398577228
Cu           -8.972297700         1.815621367        -7.190204140
Cu          -10.686804949        -0.000000000        -3.572026409
Cu          -10.704966387         1.785379087        -1.785379087
Cu           -8.915134207        -0.000000000        -1.797789110
Cu           -8.955633786         1.824107245        -3.615472497
Cu          -10.720489362        -0.000000000        -0.000000000
Cu          -10.704966387         1.785379087         1.785379087
Cu           -8.915134207        -0.000000000         1.797789110
Cu           -8.915134207         1.797789110        -0.000000000
Cu          -10.686804949        -0.000000000         3.572026409
Cu          -10.733474551         1.816209755         5.385780915
Cu           -8.958045534        -0.000000000         5.398577228
Cu           -8.955633786         1.824107245         3.615472497
Cu          -10.683984031        -0.000000000         7.121549194
Cu           -8.911472517        -0.000000000         8.911472517
Cu           -8.972297700         1.815621367         7.190204140
Cu           -8.982807273         3.624192661        -5.412074150
Cu          -10.749601181         3.596743920        -3.596743920
Cu          -10.733474551         5.385780915        -1.816209755
Cu           -8.955633786         3.615472497        -1.824107245
Cu           -8.982807273         5.412074150        -3.624192661
Cu          -10.686804949         3.572026409        -0.000000000
Cu          -10.733474551         5.385780915         1.816209755
Cu           -8.955633786         3.615472497         1.824107245
Cu           -8.958045534         5.398577228        -0.000000000
Cu          -10.749601181         3.596743920         3.596743920
Cu           -8.982807273         3.624192661         5.412074150
Cu           -8.982807273         5.412074150         3.624192661
Cu           -8.972297700         7.190204140        -1.815621367
Cu          -10.683984031         7.121549194        -0.000000000
Cu           -8.972297700         7.190204140         1.815621367
Cu           -8.911472517         8.911472517        -0.000000000
Cu           -5.299268693       -12.386714685        -0.000000000
Cu           -7.190204140        -8.972297700        -1.815621367
Cu           -5.385780915       -10.733474551        -1.816209755
Cu           -5.412074150        -8.982807273        -3.624192661
Cu           -7.121549194       -10.683984031        -0.000000000
Cu           -7.190204140        -8.972297700         1.815621367
Cu           -5.385780915       -10.733474551         1.816209755
Cu           -5.398577228        -8.958045534        -0.000000000
Cu           -5.412074150        -8.982807273         3.624192661
Cu           -7.210632287        -5.424239159        -5.424239159
Cu           -5.424239159        -7.210632287        -5.424239159
Cu           -5.424239159        -5.424239159        -7.210632287
Cu           -7.206291044        -7.206291044        -3.626546506
Cu           -7.196862700        -5.416833490        -1.826159785
Cu           -5.416833490        -7.196862700        -1.826159785
Cu           -5.421397192        -5.421397192        -3.631663475
Cu           -7.186812029        -7.186812029        -0.000000000
Cu           -7.196862700        -5.416833490         1.826159785
Cu           -5.416833490        -7.196862700         1.826159785
Cu           -5.403414289        -5.403414289        -0.000000000
Cu           -7.206291044        -7.206291044         3.626546506
Cu           -7.210632287        -5.424239159         5.424239159
Cu           -5.424239159        -7.210632287         5.424239159
Cu           -5.421397192        -5.421397192         3.631663475
Cu           -5.424239159        -5.424239159         7.210632287
Cu           -7.190204140        -1.815621367        -8.972297700
Cu           -5.412074150        -3.624192661        -8.982807273
Cu           -5.385780915        -1.816209755       -10.733474551
Cu           -7.206291044        -3.626546506        -7.206291044
Cu           -7.196862700        -1.826159785        -5.416833490
Cu           -5.421397192        -3.631663475        -5.421397192
Cu           -5.416833490        -1.826159785        -7.196862700
Cu           -7.194603155        -3.630357311        -3.630357311
Cu           -7.162000509        -1.815613226        -1.815613226
Cu           -5.398798574        -3.616247657        -1.814935685
Cu           -5.398798574        -1.814935685        -3.616247657
Cu           -7.173943631        -3.615193959        -0.000000000
Cu           -7.162000509        -1.815613226         1.815613226
Cu           -5.398798574        -3.616247657         1.814935685
Cu           -5.383167279        -1.811634165        -0.000000000
Cu           -7.194603155        -3.630357311         3.630357311
Cu           -7.196862700        -1.826159785         5.416833490
Cu           -5.421397192        -3.631663475         5.421397192
Cu           -5.398798574        -1.814935685         3.616247657
Cu           -7.206291044        -3.626546506         7.206291044
Cu           -7.190204140        -1.815621367         8.972297700
Cu           -5.412074150        -3.624192661         8.982807273
Cu           -5.416833490        -1.826159785         7.196862700
Cu           -5.385780915        -1.816209755        10.733474551
Cu           -5.299268693        -0.000000000       -12.386714685
Cu           -7.121549194        -0.000000000       -10.683984031
Cu           -7.190204140         1.815621367        -8.972297700
Cu           -5.398577228        -0.000000000        -8.958045534
Cu           -5.385780915         1.816209755       -10.733474551
Cu           -7.186812029        -0.000000000        -7.186812029
Cu           -7.196862700         1.826159785        -5.416833490
Cu           -5.403414289        -0.000000000        -5.403414289
Cu           -5.416833490         1.826159785        -7.196862700
Cu           -7.173943631        -0.000000000        -3.615193959
Cu           -7.162000509         1.815613226        -1.815613226
Cu           -5.383167279        -0.000000000        -1.811634165
Cu           -5.398798574         1.814935685        -3.616247657
Cu           -7.138939800        -0.000000000        -0.000000000
Cu           -7.162000509         1.815613226         1.815613226
Cu           -5.383167279        -0.000000000         1.811634165
Cu           -5.383167279         1.811634165        -0.000000000
Cu           -7.173943631        -0.000000000         3.615193959
Cu           -7.196862700         1.826159785         5.416833490
Cu           -5.403414289        -0.000000000         5.403414289
Cu           -5.398798574         1.814935685         3.616247657
Cu           -7.186812029        -0.000000000         7.186812029
Cu           -7.190204140         1.815621367         8.972297700
Cu           -5.398577228        -0.000000000         8.958045534
Cu           -5.416833490         1.826159785         7.196862700
Cu           -7.121549194        -0.000000000        10.683984031
Cu           -5.299268693        -0.000000000        12.386714685
Cu           -5.385780915         1.816209755        10.733474551
Cu           -5.412074150         3.624192661        -8.982807273
Cu           -7.206291044         3.626546506        -7.206291044
Cu           -7.210632287         5.424239159        -5.424239159
Cu           -5.421397192         3.631663475        -5.421397192
Cu           -5.424239159         5.424239159        -7.210632287
Cu           -7.194603155         3.630357311        -3.630357311
Cu           -7.196862700         5.416833490        -1.826159785
Cu           -5.398798574         3.616247657        -1.814935685
Cu           -5.421397192         5.421397192        -3.631663475
Cu           -7.173943631         3.615193959        -0.000000000
Cu           -7.196862700         5.416833490         1.826159785
Cu           -5.398798574         3.616247657         1.814935685
Cu           -5.403414289         5.403414289         0.000000000
Cu           -7.194603155         3.630357311         3.630357311
Cu           -7.210632287         5.424239159         5.424239159
Cu           -5.421397192         3.631663475         5.421397192
Cu           -5.421397192         5.421397192         3.631663475
Cu           -7.206291044         3.626546506         7.206291044
Cu           -5.412074150         3.624192661         8.982807273
Cu           -5.424239159         5.424239159         7.210632287
Cu           -5.424239159         7.210632287        -5.424239159
Cu           -7.206291044         7.206291044        -3.626546506
Cu           -7.190204140         8.972297700        -1.815621367
Cu           -5.416833490         7.196862700        -1.826159785
Cu           -5.412074150         8.982807273        -3.624192661
Cu           -7.186812029         7.186812029         0.000000000
Cu           -7.190204140         8.972297700         1.815621367
Cu           -5.416833490         7.196862700         1.826159785
Cu           -5.398577228         8.958045534         0.000000000
Cu           -7.206291044         7.206291044         3.626546506
Cu           -5.424239159         7.210632287         5.424239159
Cu           -5.412074150         8.982807273         3.624192661
Cu           -5.385780915        10.733474551        -1.816209755
Cu           -7.121549194        10.683984031         0.000000000
Cu           -5.385780915        10.733474551         1.816209755
Cu           -5.299268693        12.386714685         0.000000000
Cu           -3.539765940       -12.444060100        -1.756932655
Cu           -1.756932655       -12.444060100        -3.539765940
Cu           -3.539765940       -12.444060100         1.756932655
Cu           -1.779117874       -12.504167127        -0.000000000
Cu           -1.756932655       -12.444060100         3.539765940
Cu           -3.624192661        -8.982807273        -5.412074150
Cu           -1.816209755       -10.733474551        -5.385780915
Cu           -1.815621367        -8.972297700        -7.190204140
Cu           -3.596743920       -10.749601181        -3.596743920
Cu           -3.615472497        -8.955633786        -1.824107245
Cu           -1.785379087       -10.704966387        -1.785379087
Cu           -1.824107245        -8.955633786        -3.615472497
Cu           -3.572026409       -10.686804949        -0.000000000
Cu           -3.615472497        -8.955633786         1.824107245
Cu           -1.785379087       -10.704966387         1.785379087
Cu           -1.797789110        -8.915134207        -0.000000000
Cu           -3.596743920       -10.749601181         3.596743920
Cu           -3.624192661        -8.982807273         5.412074150
Cu           -1.816209755       -10.733474551         5.385780915
Cu           -1.824107245        -8.955633786         3.615472497
Cu           -1.815621367        -8.972297700         7.190204140
Cu           -3.624192661        -5.412074150        -8.982807273
Cu           -1.815621367        -7.190204140        -8.972297700
Cu           -1.816209755        -5.385780915       -10.733474551
Cu           -3.626546506        -7.206291044        -7.206291044
Cu           -3.631663475        -5.421397192        -5.421397192
Cu           -1.826159785        -7.196862700        -5.416833490
Cu           -1.826159785        -5.416833490        -7.196862700
Cu           -3.630357311        -7.194603155        -3.630357311
Cu           -3.616247657        -5.398798574        -1.814935685
Cu           -1.815613226        -7.162000509        -1.815613226
Cu           -1.814935685        -5.398798574        -3.616247657
Cu           -3.615193959        -7.173943631        -0.000000000
Cu           -3.616247657        -5.398798574         1.814935685
Cu           -1.815613226        -7.162000509         1.815613226
Cu           -1.811634165        -5.383167279        -0.000000000
Cu           -3.630357311        -7.194603155         3.630357311
Cu           -3.631663475        -5.421397192         5.421397192
Cu           -1.826159785        -7.196862700         5.416833490
Cu           -1.814935685        -5.398798574         3.616247657
Cu           -3.626546506        -7.206291044         7.206291044
Cu           -3.624192661        -5.412074150         8.982807273
Cu           -1.815621367        -7.190204140         8.972297700
Cu           -1.826159785        -5.416833490         7.196862700
Cu           -1.816209755        -5.385780915        10.733474551
Cu           -3.539765940        -1.756932655       -12.444060100
Cu           -1.756932655        -3.539765940       -12.444060100
Cu           -3.596743920        -3.596743920       -10.749601181
Cu           -3.615472497        -1.824107245        -8.955633786
Cu           -1.824107245        -3.615472497        -8.955633786
Cu           -1.785379087        -1.785379087       -10.704966387
Cu           -3.630357311        -3.630357311        -7.194603155
Cu           -3.616247657        -1.814935685        -5.398798574
Cu           -1.814935685        -3.616247657        -5.398798574
Cu           -1.815613226        -1.815613226        -7.162000509
Cu           -3.614575143        -3.614575143        -3.614575143
Cu           -3.601676329        -1.807383525        -1.807383525
Cu           -1.807383525        -3.601676329        -1.807383525
Cu           -1.807383525        -1.807383525        -3.601676329
Cu           -3.604968010        -3.604968010        -0.000000000
Cu           -3.601676329        -1.807383525         1.807383525
Cu           -1.807383525        -3.601676329         1.807383525
Cu           -1.802794855        -1.802794855        -0.000000000
Cu           -3.614575143        -3.614575143         3.614575143
Cu           -3.616247657        -1.814935685         5.398798574
Cu           -1.814935685        -3.616247657         5.398798574
Cu           -1.807383525        -1.807383525         3.601676329
Cu           -3.630357311        -3.630357311         7.194603155
Cu           -3.615472497        -1.824107245         8.955633786
Cu           -1.824107245        -3.615472497         8.955633786
Cu           -1.815613226        -1.815613226         7.162000509
Cu           -3.596743920        -3.596743920        10.749601181
Cu           -3.539765940        -1.756932655        12.444060100
Cu           -1.756932655        -3.539765940        12.444060100
Cu           -1.785379087        -1.785379087        10.704966387
Cu           -3.539765940         1.756932655       -12.444060100
Cu           -1.779117874         0.000000000       -12.504167127
Cu           -3.572026409         0.000000000       -10.686804949
Cu           -3.615472497         1.824107245        -8.955633786
Cu           -1.797789110         0.000000000        -8.915134207
Cu           -1.785379087         1.785379087       -10.704966387
Cu           -3.615193959        -0.000000000        -7.173943631
Cu           -3.616247657         1.814935685        -5.398798574
Cu           -1.811634165         0.000000000        -5.383167279
Cu           -1.815613226         1.815613226        -7.162000509
Cu           -3.604968010        -0.000000000        -3.604968010
Cu           -3.601676329         1.807383525        -1.807383525
Cu           -1.802794855        -0.000000000        -1.802794855
Cu           -1.807383525         1.807383525        -3.601676329
Cu           -3.597430282        -0.000000000        -0.000000000
Cu           -3.601676329         1.807383525         1.807383525
Cu           -1.802794855        -0.000000000         1.802794855
Cu           -1.802794855         1.802794855         0.000000000
Cu           -3.604968010        -0.000000000         3.604968010
Cu           -3.616247657         1.814935685         5.398798574
Cu           -1.811634165        -0.000000000         5.383167279
Cu           -1.807383525         1.807383525         3.601676329
Cu           -3.615193959        -0.000000000         7.173943631
Cu           -3.615472497         1.824107245         8.955633786
Cu           -1.797789110        -0.000000000         8.915134207
Cu           -1.815613226         1.815613226         7.162000509
Cu           -3.572026409        -0.000000000        10.686804949
Cu           -3.539765940         1.756932655        12.444060100
Cu           -1.779117874        -0.000000000        12.504167127
Cu           -1.785379087         1.785379087        10.704966387
Cu           -1.756932655         3.539765940       -12.444060100
Cu           -3.596743920         3.596743920       -10.749601181
Cu           -3.624192661         5.412074150        -8.982807273
Cu           -1.824107245         3.615472497        -8.955633786
Cu           -1.816209755         5.385780915       -10.733474551
Cu           -3.630357311         3.630357311        -7.194603155
Cu           -3.631663475         5.421397192        -5.421397192
Cu           -1.814935685         3.616247657        -5.398798574
Cu           -1.826159785         5.416833490        -7.196862700
Cu           -3.614575143         3.614575143        -3.614575143
Cu           -3.616247657         5.398798574        -1.814935685
Cu           -1.807383525         3.601676329        -1.807383525
Cu           -1.814935685         5.398798574        -3.616247657
Cu           -3.604968010         3.604968010         0.000000000
Cu           -3.616247657         5.398798574         1.814935685
Cu           -1.807383525         3.601676329         1.807383525
Cu           -1.811634165         5.383167279         0.000000000
Cu           -3.614575143         3.614575143         3.614575143
Cu           -3.631663475         5.421397192         5.421397192
Cu           -1.814935685         3.616247657         5.398798574
Cu           -1.814935685         5.398798574         3.616247657
Cu           -3.630357311         3.630357311         7.194603155
Cu           -3.624192661         5.412074150         8.982807273
Cu           -1.824107245         3.615472497         8.955633786
Cu           -1.826159785         5.416833490         7.196862700
Cu           -3.596743920         3.596743920        10.749601181
Cu           -1.756932655         3.539765940        12.444060100
Cu           -1.816209755         5.385780915        10.733474551
Cu           -1.815621367         7.190204140        -8.972297700
Cu           -3.626546506         7.206291044        -7.206291044
Cu           -3.624192661         8.982807273        -5.412074150
Cu           -1.826159785         7.196862700        -5.416833490
Cu           -1.815621367         8.972297700        -7.190204140
Cu           -3.630357311         7.194603155        -3.630357311
Cu           -3.615472497         8.955633786        -1.824107245
Cu           -1.815613226         7.162000509        -1.815613226
Cu           -1.824107245         8.955633786        -3.615472497
Cu           -3.615193959         7.173943631         0.000000000
Cu           -3.615472497         8.955633786         1.824107245
Cu           -1.815613226         7.162000509         1.815613226
Cu           -1.797789110         8.915134207         0.000000000
Cu           -3.630357311         7.194603155         3.630357311
Cu           -3.624192661         8.982807273         5.412074150
Cu           -1.826159785         7.196862700         5.416833490
Cu           -1.824107245         8.955633786         3.615472497
Cu           -3.626546506         7.206291044         7.206291044
Cu           -1.815621367         7.190204140         8.972297700
Cu           -1.815621367         8.972297700         7.190204140
Cu           -1.816209755        10.733474551        -5.385780915
Cu           -3.596743920        10.749601181        -3.596743920
Cu           -3.539765940        12.444060100        -1.756932655
Cu           -1.785379087        10.704966387        -1.785379087
Cu           -1.756932655        12.444060100        -3.539765940
Cu           -3.572026409        10.686804949         0.000000000
Cu           -3.539765940        12.444060100         1.756932655
Cu           -1.785379087        10.704966387         1.785379087
Cu           -1.779117874        12.504167127         0.000000000
Cu           -3.596743920        10.749601181         3.596743920
Cu           -1.816209755        10.733474551         5.385780915
Cu           -1.756932655        12.444060100         3.539765940
Cu            0.000000000       -12.386714685        -5.299268693
Cu            0.000000000       -12.504167127        -1.779117874
Cu            1.756932655       -12.444060100        -3.539765940
Cu            0.000000000       -12.504167127         1.779117874
Cu            1.779117874       -12.504167127        -0.000000000
Cu            0.000000000       -12.386714685         5.299268693
Cu            1.756932655       -12.444060100         3.539765940
Cu            0.000000000        -8.911472517        -8.911472517
Cu            0.000000000       -10.683984031        -7.121549194
Cu            0.000000000        -8.958045534        -5.398577228
Cu            1.816209755       -10.733474551        -5.385780915
Cu            1.815621367        -8.972297700        -7.190204140
Cu            0.000000000       -10.686804949        -3.572026409
Cu            0.000000000        -8.915134207        -1.797789110
Cu            1.785379087       -10.704966387        -1.785379087
Cu            1.824107245        -8.955633786        -3.615472497
Cu            0.000000000       -10.720489362        -0.000000000
Cu            0.000000000        -8.915134207         1.797789110
Cu            1.785379087       -10.704966387         1.785379087
Cu            1.797789110        -8.915134207        -0.000000000
Cu            0.000000000       -10.686804949         3.572026409
Cu            0.000000000        -8.958045534         5.398577228
Cu            1.816209755       -10.733474551         5.385780915
Cu            1.824107245        -8.955633786         3.615472497
Cu            0.000000000       -10.683984031         7.121549194
Cu            0.000000000        -8.911472517         8.911472517
Cu            1.815621367        -8.972297700         7.190204140
Cu            0.000000000        -5.299268693       -12.386714685
Cu            0.000000000        -7.121549194       -10.683984031
Cu            0.000000000        -5.398577228        -8.958045534
Cu            1.815621367        -7.190204140        -8.972297700
Cu            1.816209755        -5.385780915       -10.733474551
Cu            0.000000000        -7.186812029        -7.186812029
Cu            0.000000000        -5.403414289        -5.403414289
Cu            1.826159785        -7.196862700        -5.416833490
Cu            1.826159785        -5.416833490        -7.196862700
Cu            0.000000000        -7.173943631        -3.615193959
Cu            0.000000000        -5.383167279        -1.811634165
Cu            1.815613226        -7.162000509        -1.815613226
Cu            1.814935685        -5.398798574        -3.616247657
Cu            0.000000000        -7.138939800        -0.000000000
Cu            0.000000000        -5.383167279         1.811634165
Cu            1.815613226        -7.162000509         1.815613226
Cu            1.811634165        -5.383167279        -0.000000000
Cu            0.000000000        -7.173943631         3.615193959
Cu            0.000000000        -5.403414289         5.403414289
Cu            1.826159785        -7.196862700         5.416833490
Cu            1.814935685        -5.398798574         3.616247657
Cu            0.000000000        -7.186812029         7.186812029
Cu            0.000000000        -5.398577228         8.958045534
Cu            1.815621367        -7.190204140         8.972297700
Cu            1.826159785        -5.416833490         7.196862700
Cu            0.000000000        -7.121549194        10.683984031
Cu            0.000000000        -5.299268693        12.386714685
Cu            1.816209755        -5.385780915        10.733474551
Cu            0.000000000        -1.779117874       -12.504167127
Cu            1.756932655        -3.539765940       -12.444060100
Cu            0.000000000        -3.572026409       -10.686804949
Cu            0.000000000        -1.797789110        -8.915134207
Cu            1.824107245        -3.615472497        -8.955633786
Cu            1.785379087        -1.785379087       -10.704966387
Cu            0.000000000        -3.615193959        -7.173943631
Cu            0.000000000        -1.811634165        -5.383167279
Cu            1.814935685        -3.616247657        -5.398798574
Cu            1.815613226        -1.815613226        -7.162000509
Cu            0.000000000        -3.604968010        -3.604968010
Cu            0.000000000        -1.802794855        -1.802794855
Cu            1.807383525        -3.601676329        -1.807383525
Cu            1.807383525        -1.807383525        -3.601676329
Cu            0.000000000        -3.597430282        -0.000000000
Cu            0.000000000        -1.802794855         1.802794855
Cu            1.807383525        -3.601676329         1.807383525
Cu            1.802794855        -1.802794855         0.000000000
Cu            0.000000000        -3.604968010         3.604968010
Cu            0.000000000        -1.811634165         5.383167279
Cu            1.814935685        -3.616247657         5.398798574
Cu            1.807383525        -1.807383525         3.601676329
Cu            0.000000000        -3.615193959         7.173943631
Cu           -0.000000000        -1.797789110         8.915134207
Cu            1.824107245        -3.615472497         8.955633786
Cu            1.815613226        -1.815613226         7.162000509
Cu            0.000000000        -3.572026409        10.686804949
Cu           -0.000000000        -1.779117874        12.504167127
Cu            1.756932655        -3.539765940        12.444060100
Cu            1.785379087        -1.785379087        10.704966387
Cu            0.000000000         1.779117874       -12.504167127
Cu            1.779117874         0.000000000       -12.504167127
Cu            0.000000000         0.000000000       -10.720489362
Cu            0.000000000         1.797789110        -8.915134207
Cu            1.797789110         0.000000000        -8.915134207
Cu            1.785379087         1.785379087       -10.704966387
Cu            0.000000000         0.000000000        -7.138939800
Cu            0.000000000         1.811634165        -5.383167279
Cu            1.811634165         0.000000000        -5.383167279
Cu            1.815613226         1.815613226        -7.162000509
Cu            0.000000000         0.000000000        -3.597430282
Cu           -0.000000000         1.802794855        -1.802794855
Cu            1.802794855         0.000000000        -1.802794855
Cu            1.807383525         1.807383525        -3.601676329