 vasp.5.4.4.18Apr17-6-g9f103f2a35 (build Jan 23 2020 13:04:52) gamma-only       
  
 executed on           IFC91_ompi date 2021.01.01  09:08:49
 running on   44 total cores
 distrk:  each k-point on   44 cores,    1 groups
 distr:  one band on NCORES_PER_BAND=  11 cores,    4 groups


--------------------------------------------------------------------------------------------------------


 INCAR:
 POTCAR:    PAW_PBE Cu 22Jun2005                  
 POTCAR:    PAW_PBE Cu 22Jun2005                  
   VRHFIN =Cu: d10 p1                                                           
   LEXCH  = PE                                                                  
   EATOM  =  1390.9808 eV,  102.2342 Ry                                         
                                                                                
   TITEL  = PAW_PBE Cu 22Jun2005                                                
   LULTRA =        F    use ultrasoft PP ?                                      
   IUNSCR =        1    unscreen: 0-lin 1-nonlin 2-no                           
   RPACOR =    2.000    partial core radius                                     
   POMASS =   63.546; ZVAL   =   11.000    mass and valenz                      
   RCORE  =    2.300    outmost cutoff radius                                   
   RWIGS  =    2.200; RWIGS  =    1.164    wigner-seitz radius (au A)           
   ENMAX  =  295.446; ENMIN  =  221.585 eV                                      
   ICORE  =        3    local potential                                         
   LCOR   =        T    correct aug charges                                     
   LPAW   =        T    paw PP                                                  
   EAUG   =  586.980                                                            
   DEXC   =    0.000                                                            
   RMAX   =    2.344    core radius for proj-oper                               
   RAUG   =    1.300    factor for augmentation sphere                          
   RDEP   =    2.302    radius for radial grids                                 
   RDEPT  =    1.771    core radius for aug-charge                              
                                                                                
   Atomic configuration                                                         
    9 entries                                                                   
     n  l   j            E        occ.                                          
     1  0  0.50     -8850.2468   2.0000                                         
     2  0  0.50     -1062.3498   2.0000                                         
     2  1  1.50      -916.8226   6.0000                                         
     3  0  0.50      -114.6929   2.0000                                         
     3  1  1.50       -72.1325   6.0000                                         
     3  2  2.50        -5.0394  10.0000                                         
     4  0  0.50        -4.6097   1.0000                                         
     4  1  0.50        -4.0817   0.0000                                         
     4  3  2.50        -1.3606   0.0000                                         
   Description                                                                  
     l       E           TYP  RCUT    TYP  RCUT                                 
     2     -5.0393973     23  2.200                                             
     2     10.8846608     23  2.200                                             
     0     -4.6097109     23  2.200                                             
     0      8.2520465     23  2.200                                             
     1     -2.7211652     23  2.200                                             
     1     21.7055443     23  2.200                                             
     3      2.7211652     23  2.300                                             
  local pseudopotential read in
  partial core-charges read in
  partial kinetic energy density read in
  atomic valenz-charges read in
  non local Contribution for L=           2  read in
    real space projection operators read in
  non local Contribution for L=           2  read in
    real space projection operators read in
  non local Contribution for L=           0  read in
    real space projection operators read in
  non local Contribution for L=           0  read in
    real space projection operators read in
  non local Contribution for L=           1  read in
    real space projection operators read in
  non local Contribution for L=           1  read in
    real space projection operators read in
    PAW grid and wavefunctions read in
 
   number of l-projection  operators is LMAX  =           6
   number of lm-projection operators is LMMAX =          18
 
  PAW_PBE Cu 22Jun2005                  :
 energy of atom  1       EATOM=-1390.9808
 kinetic energy error for atom=    0.0452 (will be added to EATOM!!)
 
 
 POSCAR: Unknown Structure <s> Cu </s>           
  positions in direct lattice
  No initial velocities read in
 exchange correlation table for  LEXCH =        8
   RHO(1)=    0.500       N(1)  =     2000
   RHO(2)=  100.500       N(2)  =     4000
 


--------------------------------------------------------------------------------------------------------


 ion  position               nearest neighbor table
   1  0.327  0.255  0.293-   5 2.28   8 2.59   3 2.61   4 2.61   7 2.62
   2  0.247  0.185  0.254-   5 2.25   4 2.60   9 2.60   6 2.62   3 2.63
   3  0.309  0.230  0.212-   5 2.25   8 2.58   1 2.61   2 2.63   9 2.65
   4  0.251  0.230  0.328-   5 2.25   7 2.59   2 2.60   1 2.61   6 2.64
   5  0.259  0.259  0.259-   4 2.25   7 2.25   3 2.25  10 2.25   2 2.25   6 2.27   8 2.28   9 2.28
                             1 2.28
   6  0.185  0.245  0.271-   5 2.27   9 2.60  10 2.60   2 2.62   4 2.64
   7  0.264  0.313  0.310-   5 2.25   4 2.59   8 2.61   1 2.62  10 2.63
   8  0.305  0.313  0.234-   5 2.28   3 2.58   1 2.59   7 2.61  10 2.64
   9  0.224  0.243  0.193-   5 2.28  10 2.58   6 2.60   2 2.60   3 2.65
  10  0.218  0.317  0.236-   5 2.25   9 2.58   6 2.60   7 2.63   8 2.64
 

IMPORTANT INFORMATION: All symmetrisations will be switched off!
NOSYMM: (Re-)initialisation of all symmetry stuff for point group C_1.

 
 
 KPOINTS: Gamma-point only                        
  k-points in reciprocal lattice
Space group operators:
 irot       det(A)        alpha          n_x          n_y          n_z        tau_x        tau_y        tau_z
    1     1.000000     0.000000     1.000000     0.000000     0.000000     0.000000     0.000000     0.000000


--------------------------------------------------------------------------------------------------------




 Dimension of arrays:
   k-points           NKPTS =      1   k-points in BZ     NKDIM =      1   number of bands    NBANDS=     84
   number of dos      NEDOS =    301   number of ions     NIONS =     10
   non local maximal  LDIM  =      6   non local SUM 2l+1 LMDIM =     18
   total plane-waves  NPLWV = ******
   max r-space proj   IRMAX =      1   max aug-charges    IRDMAX=   2345
   dimension x,y,z NGX =   126 NGY =  126 NGZ =  126
   dimension x,y,z NGXF=   252 NGYF=  252 NGZF=  252
   support grid    NGXF=   252 NGYF=  252 NGZF=  252
   ions per type =              10
   NGX,Y,Z   is equivalent  to a cutoff of   6.98,  6.98,  6.98 a.u.
   NGXF,Y,Z  is equivalent  to a cutoff of  13.96, 13.96, 13.96 a.u.

 SYSTEM =  unknown system                          
 POSCAR =  Unknown Structure <s> Cu </s>           

 Startparameter for this run:
   NWRITE =      2    write-flag & timer
   PREC   = normal    normal or accurate (medium, high low for compatibility)
   ISTART =      0    job   : 0-new  1-cont  2-samecut
   ICHARG =      2    charge: 1-file 2-atom 10-const
   ISPIN  =      2    spin polarized calculation?
   LNONCOLLINEAR =      F non collinear calculations
   LSORBIT =      F    spin-orbit coupling
   INIWAV =      1    electr: 0-lowe 1-rand  2-diag
   LASPH  =      F    aspherical Exc in radial PAW
   METAGGA=      F    non-selfconsistent MetaGGA calc.

 Electronic Relaxation 1
   ENCUT  =  295.4 eV  21.71 Ry    4.66 a.u.  42.05 42.05 42.05*2*pi/ulx,y,z
   ENINI  =  295.4     initial cutoff
   ENAUG  =  587.0 eV  augmentation charge cutoff
   NELM   =     60;   NELMIN=  2; NELMDL= -5     # of ELM steps 
   EDIFF  = 0.1E-04   stopping-criterion for ELM
   LREAL  =      F    real-space projection
   NLSPLINE    = F    spline interpolate recip. space projectors
   LCOMPAT=      F    compatible to vasp.4.4
   GGA_COMPAT  = T    GGA compatible to vasp.4.4-vasp.4.6
   LMAXPAW     = -100 max onsite density
   LMAXMIX     =    2 max onsite mixed and CHGCAR
   VOSKOWN=      0    Vosko Wilk Nusair interpolation
   ROPT   =    0.00000
 Ionic relaxation
   EDIFFG = -.1E+00   stopping-criterion for IOM
   NSW    =    101    number of steps for IOM
   NBLOCK =      1;   KBLOCK =    101    inner block; outer block 
   IBRION =      2    ionic relax: 0-MD 1-quasi-New 2-CG
   NFREE  =      1    steps in history (QN), initial steepest desc. (CG)
   ISIF   =      2    stress and relaxation
   IWAVPR =     11    prediction:  0-non 1-charg 2-wave 3-comb
   ISYM   =      0    0-nonsym 1-usesym 2-fastsym
   LCORR  =      T    Harris-Foulkes like correction to forces

   POTIM  = 0.5000    time-step for ionic-motion
   TEIN   =    0.0    initial temperature
   TEBEG  =    0.0;   TEEND  =   0.0 temperature during run
   SMASS  =  -3.00    Nose mass-parameter (am)
   estimated Nose-frequenzy (Omega)   =  0.10E-29 period in steps =****** mass=  -0.206E-25a.u.
   SCALEE = 1.0000    scale energy and forces
   NPACO  =    256;   APACO  = 16.0  distance and # of slots for P.C.
   PSTRESS=    0.0 pullay stress

  Mass of Ions in am
   POMASS =  63.55
  Ionic Valenz
   ZVAL   =  11.00
  Atomic Wigner-Seitz radii
   RWIGS  =  -1.00
  virtual crystal weights 
   VCA    =   1.00
   NELECT =     110.0000    total number of electrons
   NUPDOWN=      -1.0000    fix difference up-down

 DOS related values:
   EMIN   =  10.00;   EMAX   =-10.00  energy-range for DOS
   EFERMI =   0.00
   ISMEAR =     0;   SIGMA  =   0.00  broadening in eV -4-tet -1-fermi 0-gaus

 Electronic relaxation 2 (details)
   IALGO  =     38    algorithm
   LDIAG  =      T    sub-space diagonalisation (order eigenvalues)
   LSUBROT=      F    optimize rotation matrix (better conditioning)
   TURBO    =      0    0=normal 1=particle mesh
   IRESTART =      0    0=no restart 2=restart with 2 vectors
   NREBOOT  =      0    no. of reboots
   NMIN     =      0    reboot dimension
   EREF     =   0.00    reference energy to select bands
   IMIX   =      4    mixing-type and parameters
     AMIX     =   0.40;   BMIX     =  1.00
     AMIX_MAG =   1.60;   BMIX_MAG =  1.00
     AMIN     =   0.10
     WC   =   100.;   INIMIX=   1;  MIXPRE=   1;  MAXMIX= -45

 Intra band minimization:
   WEIMIN = 0.0010     energy-eigenvalue tresh-hold
   EBREAK =  0.30E-07  absolut break condition
   DEPER  =   0.30     relativ break condition  

   TIME   =   0.40     timestep for ELM

  volume/ion in A,a.u.               =    2700.00     18220.50
  Fermi-wavevector in a.u.,A,eV,Ry     =   0.261468  0.494102  0.930166  0.068365
  Thomas-Fermi vector in A             =   1.090342
 
 Write flags
   LWAVE        =      F    write WAVECAR
   LDOWNSAMPLE  =      F    k-point downsampling of WAVECAR
   LCHARG       =      F    write CHGCAR
   LVTOT        =      F    write LOCPOT, total local potential
   LVHAR        =      F    write LOCPOT, Hartree potential only
   LELF         =      F    write electronic localiz. function (ELF)
   LORBIT       =     11    0 simple, 1 ext, 2 COOP (PROOUT), +10 PAW based schemes


 Dipole corrections
   LMONO  =      F    monopole corrections only (constant potential shift)
   LDIPOL =      F    correct potential (dipole corrections)
   IDIPOL =      0    1-x, 2-y, 3-z, 4-all directions 
   EPSILON=  1.0000000 bulk dielectric constant

 Exchange correlation treatment:
   GGA     =    PE    GGA type
   LEXCH   =     8    internal setting for exchange type
   VOSKOWN=      0    Vosko Wilk Nusair interpolation
   LHFCALC =     F    Hartree Fock is set to
   LHFONE  =     F    Hartree Fock one center treatment
   AEXX    =    0.0000 exact exchange contribution

 Linear response parameters
   LEPSILON=     F    determine dielectric tensor
   LRPA    =     F    only Hartree local field effects (RPA)
   LNABLA  =     F    use nabla operator in PAW spheres
   LVEL    =     F    velocity operator in full k-point grid
   LINTERFAST=   F  fast interpolation
   KINTER  =     0    interpolate to denser k-point grid
   CSHIFT  =0.1000    complex shift for real part using Kramers Kronig
   OMEGAMAX=  -1.0    maximum frequency
   DEG_THRESHOLD= 0.2000000E-02 threshold for treating states as degnerate
   RTIME   =   -0.100 relaxation time in fs
  (WPLASMAI=    0.000 imaginary part of plasma frequency in eV, 0.658/RTIME)
   DFIELD  = 0.0000000 0.0000000 0.0000000 field for delta impulse in time
 
 Orbital magnetization related:
   ORBITALMAG=     F  switch on orbital magnetization
   LCHIMAG   =     F  perturbation theory with respect to B field
   DQ        =  0.001000  dq finite difference perturbation B field
   LLRAUG    =     F  two centre corrections for induced B field



--------------------------------------------------------------------------------------------------------


 conjugate gradient relaxation of ions
 charge density and potential will be updated during run
 spin polarized calculation
 Variant of blocked Davidson
 Davidson routine will perform the subspace rotation
 perform sub-space diagonalisation
    after iterative eigenvector-optimisation
 modified Broyden-mixing scheme, WC =      100.0
 initial mixing is a Kerker type mixing with AMIX =  0.4000 and BMIX =      1.0000
 Hartree-type preconditioning will be used
 using additional bands           29
 reciprocal scheme for non local part
 use partial core corrections
 calculate Harris-corrections to forces 
   (improved forces if not selfconsistent)
 use gradient corrections 
 use of overlap-Matrix (Vanderbilt PP)
 Gauss-broadening in eV      SIGMA  =   0.00


--------------------------------------------------------------------------------------------------------


  energy-cutoff  :      295.45
  volume of cell :    27000.00
      direct lattice vectors                 reciprocal lattice vectors
    30.000000000  0.000000000  0.000000000     0.033333333  0.000000000  0.000000000
     0.000000000 30.000000000  0.000000000     0.000000000  0.033333333  0.000000000
     0.000000000  0.000000000 30.000000000     0.000000000  0.000000000  0.033333333

  length of vectors
    30.000000000 30.000000000 30.000000000     0.033333333  0.033333333  0.033333333


 
 k-points in units of 2pi/SCALE and weight: Gamma-point only                        
   0.00000000  0.00000000  0.00000000       1.000
 
 k-points in reciprocal lattice and weights: Gamma-point only                        
   0.00000000  0.00000000  0.00000000       1.000
 
 position of ions in fractional coordinates (direct lattice) 
   0.32666348  0.25482359  0.29343318
   0.24680542  0.18486504  0.25384421
   0.30947012  0.22974952  0.21194814
   0.25059524  0.23012374  0.32770760
   0.25885208  0.25885645  0.25903443
   0.18537464  0.24459240  0.27066462
   0.26417703  0.31342836  0.31008632
   0.30543947  0.31306365  0.23352099
   0.22425222  0.24266172  0.19322710
   0.21766616  0.31713139  0.23582926
 
 position of ions in cartesian coordinates  (Angst):
   9.79990448  7.64470758  8.80299527
   7.40416249  5.54595114  7.61532622
   9.28410369  6.89248547  6.35844423
   7.51785708  6.90371222  9.83122809
   7.76556236  7.76569346  7.77103295
   5.56123915  7.33777191  8.11993875
   7.92531076  9.40285070  9.30258947
   9.16318408  9.39190964  7.00562971
   6.72756654  7.27985154  5.79681286
   6.52998482  9.51394180  7.07487791
 


--------------------------------------------------------------------------------------------------------


 use parallel FFT for orbitals z direction half grid
 k-point  1 :   0.0000 0.0000 0.0000  plane waves:  155509

 maximum and minimum number of plane-waves per node :     14150    14126

 maximum number of plane-waves:    155509
 maximum index in each direction: 
   IXMAX=   42   IYMAX=   42   IZMAX=   42
   IXMIN=  -42   IYMIN=  -42   IZMIN=    0


 parallel 3D FFT for wavefunctions:
    minimum data exchange during FFTs selected (reduces bandwidth)
 parallel 3D FFT for charge:
    minimum data exchange during FFTs selected (reduces bandwidth)


 total amount of memory used by VASP MPI-rank0   103546. kBytes
=======================================================================

   base      :      30000. kBytes
   nonl-proj :       4299. kBytes
   fftplans  :      16829. kBytes
   grid      :      42892. kBytes
   one-center:         15. kBytes
   wavefun   :       9511. kBytes
 
     INWAV:  cpu time    0.0000: real time    0.0002
 Broyden mixing: mesh for mixing (old mesh)
   NGX = 85   NGY = 85   NGZ = 85
  (NGX  =252   NGY  =252   NGZ  =252)
  gives a total of 614125 points

 initial charge density was supplied:
 charge density of overlapping atoms calculated
 number of electron     110.0000000 magnetization      30.0000000
 keeping initial charge density in first step


--------------------------------------------------------------------------------------------------------


 Maximum index for augmentation-charges          175 (set IRDMAX)


--------------------------------------------------------------------------------------------------------


 First call to EWALD:  gamma=   0.059
 Maximum number of real-space cells 3x 3x 3
 Maximum number of reciprocal cells 3x 3x 3

    FEWALD:  cpu time    0.0000: real time    0.0013


--------------------------------------- Iteration      1(   1)  ---------------------------------------


    POTLOK:  cpu time    0.9680: real time    0.9763
    SETDIJ:  cpu time    0.0120: real time    0.0134
     EDDAV:  cpu time    3.9720: real time    3.9746
       DOS:  cpu time    0.0000: real time    0.0004
    --------------------------------------------
      LOOP:  cpu time    4.9520: real time    4.9648

 eigenvalue-minimisations  :   368
 total energy-change (2. order) : 0.6803067E+03  (-0.1250108E+04)
 number of electron     110.0000000 magnetization      30.0000000
 augmentation part      110.0000000 magnetization      30.0000000

 Free energy of the ion-electron system (eV)
  ---------------------------------------------------
  alpha Z        PSCENC =         2.70862236
  Ewald energy   TEWEN  =     18624.92037997
  -Hartree energ DENC   =    -31271.49668987
  -exchange      EXHF   =         0.00000000
  -V(xc)+E(xc)   XCENC  =       458.23515400
  PAW double counting   =     12272.17179803   -13328.95876857
  entropy T*S    EENTRO =        -0.00000000
  eigenvalues    EBANDS =        13.37032885
  atomic energy  EATOM  =     13909.35584658
  Solvation  Ediel_sol  =         0.00000000
  ---------------------------------------------------
  free energy    TOTEN  =       680.30667134 eV

  energy without entropy =      680.30667134  energy(sigma->0) =      680.30667134


--------------------------------------------------------------------------------------------------------




--------------------------------------- Iteration      1(   2)  ---------------------------------------


     EDDAV:  cpu time    5.6800: real time    5.6979
       DOS:  cpu time    0.0000: real time    0.0003
    --------------------------------------------
      LOOP:  cpu time    5.6800: real time    5.6983

 eigenvalue-minimisations  :   584
 total energy-change (2. order) :-0.4141818E+03  (-0.3475993E+03)
 number of electron     110.0000000 magnetization      30.0000000
 augmentation part      110.0000000 magnetization      30.0000000

 Free energy of the ion-electron system (eV)
  ---------------------------------------------------
  alpha Z        PSCENC =         2.70862236
  Ewald energy   TEWEN  =     18624.92037997
  -Hartree energ DENC   =    -31271.49668987
  -exchange      EXHF   =         0.00000000
  -V(xc)+E(xc)   XCENC  =       458.23515400
  PAW double counting   =     12272.17179803   -13328.95876857
  entropy T*S    EENTRO =         0.00000000
  eigenvalues    EBANDS =      -400.81148872
  atomic energy  EATOM  =     13909.35584658
  Solvation  Ediel_sol  =         0.00000000
  ---------------------------------------------------
  free energy    TOTEN  =       266.12485377 eV

  energy without entropy =      266.12485377  energy(sigma->0) =      266.12485377


--------------------------------------------------------------------------------------------------------




--------------------------------------- Iteration      1(   3)  ---------------------------------------


     EDDAV:  cpu time    4.7240: real time    4.7343
       DOS:  cpu time    0.0000: real time    0.0004
    --------------------------------------------
      LOOP:  cpu time    4.7240: real time    4.7346

 eigenvalue-minimisations  :   464
 total energy-change (2. order) :-0.2337431E+03  (-0.2178686E+03)
 number of electron     110.0000000 magnetization      30.0000000
 augmentation part      110.0000000 magnetization      30.0000000

 Free energy of the ion-electron system (eV)
  ---------------------------------------------------
  alpha Z        PSCENC =         2.70862236
  Ewald energy   TEWEN  =     18624.92037997
  -Hartree energ DENC   =    -31271.49668987
  -exchange      EXHF   =         0.00000000
  -V(xc)+E(xc)   XCENC  =       458.23515400
  PAW double counting   =     12272.17179803   -13328.95876857
  entropy T*S    EENTRO =         0.00000000
  eigenvalues    EBANDS =      -634.55461751
  atomic energy  EATOM  =     13909.35584658
  Solvation  Ediel_sol  =         0.00000000
  ---------------------------------------------------
  free energy    TOTEN  =        32.38172498 eV

  energy without entropy =       32.38172498  energy(sigma->0) =       32.38172498


--------------------------------------------------------------------------------------------------------




--------------------------------------- Iteration      1(   4)  ---------------------------------------


     EDDAV:  cpu time    4.9200: real time    4.9299
       DOS:  cpu time    0.0000: real time    0.0004
    --------------------------------------------
      LOOP:  cpu time    4.9200: real time    4.9302

 eigenvalue-minimisations  :   488
 total energy-change (2. order) :-0.4229208E+02  (-0.3859753E+02)
 number of electron     110.0000000 magnetization      30.0000000
 augmentation part      110.0000000 magnetization      30.0000000

 Free energy of the ion-electron system (eV)
  ---------------------------------------------------
  alpha Z        PSCENC =         2.70862236
  Ewald energy   TEWEN  =     18624.92037997
  -Hartree energ DENC   =    -31271.49668987
  -exchange      EXHF   =         0.00000000
  -V(xc)+E(xc)   XCENC  =       458.23515400
  PAW double counting   =     12272.17179803   -13328.95876857
  entropy T*S    EENTRO =         0.00000000
  eigenvalues    EBANDS =      -676.84669549
  atomic energy  EATOM  =     13909.35584658
  Solvation  Ediel_sol  =         0.00000000
  ---------------------------------------------------
  free energy    TOTEN  =        -9.91035300 eV

  energy without entropy =       -9.91035300  energy(sigma->0) =       -9.91035300


--------------------------------------------------------------------------------------------------------




--------------------------------------- Iteration      1(   5)  ---------------------------------------


     EDDAV:  cpu time    4.6680: real time    4.6770
       DOS:  cpu time    0.0000: real time    0.0004
    CHARGE:  cpu time    0.3360: real time    0.3338
    MIXING:  cpu time    0.0200: real time    0.0207
    --------------------------------------------
      LOOP:  cpu time    5.0240: real time    5.0320

 eigenvalue-minimisations  :   456
 total energy-change (2. order) :-0.2181116E+01  (-0.1934638E+01)
 number of electron     109.9999452 magnetization      28.5208384
 augmentation part       65.5990686 magnetization      25.4422943

 Broyden mixing:
  rms(total) = 0.55046E+01    rms(broyden)= 0.55024E+01
  rms(prec ) = 0.55326E+01
  weight for this iteration     100.00

 Free energy of the ion-electron system (eV)
  ---------------------------------------------------
  alpha Z        PSCENC =         2.70862236
  Ewald energy   TEWEN  =     18624.92037997
  -Hartree energ DENC   =    -31271.49668987
  -exchange      EXHF   =         0.00000000
  -V(xc)+E(xc)   XCENC  =       458.23515400
  PAW double counting   =     12272.17179803   -13328.95876857
  entropy T*S    EENTRO =         0.00000000
  eigenvalues    EBANDS =      -679.02781108
  atomic energy  EATOM  =     13909.35584658
  Solvation  Ediel_sol  =         0.00000000
  ---------------------------------------------------
  free energy    TOTEN  =       -12.09146859 eV

  energy without entropy =      -12.09146859  energy(sigma->0) =      -12.09146859


--------------------------------------------------------------------------------------------------------




--------------------------------------- Iteration      1(   6)  ---------------------------------------


    POTLOK:  cpu time    0.9440: real time    0.9528
    SETDIJ:  cpu time    0.0120: real time    0.0147
     EDDAV:  cpu time    4.2240: real time    4.2222
       DOS:  cpu time    0.0000: real time    0.0005
    CHARGE:  cpu time    0.3320: real time    0.3326
    MIXING:  cpu time    0.0200: real time    0.0218
    --------------------------------------------
      LOOP:  cpu time    5.5320: real time    5.5445

 eigenvalue-minimisations  :   400
 total energy-change (2. order) : 0.8904081E+02  (-0.4626508E+02)
 number of electron     109.9999400 magnetization      27.4001969
 augmentation part       75.4161531 magnetization      17.1919950

 Broyden mixing:
  rms(total) = 0.22873E+01    rms(broyden)= 0.22834E+01
  rms(prec ) = 0.23393E+01
  weight for this iteration     100.00

 eigenvalues of (default mixing * dielectric matrix)
  average eigenvalue GAMMA=   0.9289
  0.9289

 Free energy of the ion-electron system (eV)
  ---------------------------------------------------
  alpha Z        PSCENC =         2.70862236
  Ewald energy   TEWEN  =     18624.92037997
  -Hartree energ DENC   =    -30999.15167391
  -exchange      EXHF   =         0.00000000
  -V(xc)+E(xc)   XCENC  =       510.67563504
  PAW double counting   =     12273.50852306   -13283.61439662
  entropy T*S    EENTRO =         0.00000000
  eigenvalues    EBANDS =      -961.45359729
  atomic energy  EATOM  =     13909.35584658
  Solvation  Ediel_sol  =         0.00000000
  ---------------------------------------------------
  free energy    TOTEN  =        76.94933919 eV

  energy without entropy =       76.94933919  energy(sigma->0) =       76.94933919


--------------------------------------------------------------------------------------------------------




--------------------------------------- Iteration      1(   7)  ---------------------------------------


    POTLOK:  cpu time    0.9480: real time    0.9587
    SETDIJ:  cpu time    0.0120: real time    0.0144
     EDDAV:  cpu time    4.3400: real time    4.3402
       DOS:  cpu time    0.0000: real time    0.0004
    CHARGE:  cpu time    0.3320: real time    0.3324
    MIXING:  cpu time    0.0240: real time    0.0234
    --------------------------------------------
      LOOP:  cpu time    5.6560: real time    5.6695

 eigenvalue-minimisations  :   416
 total energy-change (2. order) :-0.2014271E+02  (-0.1898984E+02)
 number of electron     109.9999438 magnetization      26.0340011
 augmentation part       71.3343942 magnetization      15.5740623

 Broyden mixing:
  rms(total) = 0.10274E+01    rms(broyden)= 0.10260E+01
  rms(prec ) = 0.10354E+01
  weight for this iteration     100.00

 eigenvalues of (default mixing * dielectric matrix)
  average eigenvalue GAMMA=   0.8834
  1.0863  0.6805

 Free energy of the ion-electron system (eV)
  ---------------------------------------------------
  alpha Z        PSCENC =         2.70862236
  Ewald energy   TEWEN  =     18624.92037997
  -Hartree energ DENC   =    -31221.58597135
  -exchange      EXHF   =         0.00000000
  -V(xc)+E(xc)   XCENC  =       504.88052953
  PAW double counting   =     12614.13120494   -13706.64810786
  entropy T*S    EENTRO =         0.00000000
  eigenvalues    EBANDS =      -670.95587479
  atomic energy  EATOM  =     13909.35584658
  Solvation  Ediel_sol  =         0.00000000
  ---------------------------------------------------
  free energy    TOTEN  =        56.80662937 eV

  energy without entropy =       56.80662937  energy(sigma->0) =       56.80662937


--------------------------------------------------------------------------------------------------------




--------------------------------------- Iteration      1(   8)  ---------------------------------------


    POTLOK:  cpu time    0.9440: real time    0.9576
    SETDIJ:  cpu time    0.0120: real time    0.0147
     EDDAV:  cpu time    4.7840: real time    4.7851
       DOS:  cpu time    0.0040: real time    0.0005
    CHARGE:  cpu time    0.3320: real time    0.3323
    MIXING:  cpu time    0.0240: real time    0.0240
    --------------------------------------------
      LOOP:  cpu time    6.1000: real time    6.1142

 eigenvalue-minimisations  :   472
 total energy-change (2. order) : 0.6534190E+01  (-0.2081693E+01)
 number of electron     109.9999441 magnetization      25.1107189
 augmentation part       70.6320599 magnetization      14.4774584

 Broyden mixing:
  rms(total) = 0.80790E+00    rms(broyden)= 0.80748E+00
  rms(prec ) = 0.82127E+00
  weight for this iteration     100.00

 eigenvalues of (default mixing * dielectric matrix)
  average eigenvalue GAMMA=   0.8626
  1.1879  0.7000  0.7000

 Free energy of the ion-electron system (eV)
  ---------------------------------------------------
  alpha Z        PSCENC =         2.70862236
  Ewald energy   TEWEN  =     18624.92037997
  -Hartree energ DENC   =    -31260.45094747
  -exchange      EXHF   =         0.00000000
  -V(xc)+E(xc)   XCENC  =       510.70414239
  PAW double counting   =     12830.18901468   -13925.49312453
  entropy T*S    EENTRO =        -0.00000000
  eigenvalues    EBANDS =      -628.59311415
  atomic energy  EATOM  =     13909.35584658
  Solvation  Ediel_sol  =         0.00000000
  ---------------------------------------------------
  free energy    TOTEN  =        63.34081982 eV

  energy without entropy =       63.34081982  energy(sigma->0) =       63.34081982


--------------------------------------------------------------------------------------------------------




--------------------------------------- Iteration      1(   9)  ---------------------------------------


    POTLOK:  cpu time    0.9400: real time    0.9585
    SETDIJ:  cpu time    0.0160: real time    0.0148
     EDDAV:  cpu time    4.6920: real time    4.6927
       DOS:  cpu time    0.0000: real time    0.0004
    CHARGE:  cpu time    0.3320: real time    0.3315
    MIXING:  cpu time    0.0280: real time    0.0259
    --------------------------------------------
      LOOP:  cpu time    6.0080: real time    6.0238

 eigenvalue-minimisations  :   460
 total energy-change (2. order) :-0.9052019E+01  (-0.5371360E+00)
 number of electron     109.9999446 magnetization      23.5825339
 augmentation part       70.6341379 magnetization      13.1963910

 Broyden mixing:
  rms(total) = 0.60368E+00    rms(broyden)= 0.60311E+00
  rms(prec ) = 0.61013E+00
  weight for this iteration     100.00

 eigenvalues of (default mixing * dielectric matrix)
  average eigenvalue GAMMA=   0.9063
  1.1944  1.1944  0.7672  0.4692

 Free energy of the ion-electron system (eV)
  ---------------------------------------------------
  alpha Z        PSCENC =         2.70862236
  Ewald energy   TEWEN  =     18624.92037997
  -Hartree energ DENC   =    -31253.39138859
  -exchange      EXHF   =         0.00000000
  -V(xc)+E(xc)   XCENC  =       502.89687431
  PAW double counting   =     12880.33334819   -13969.62102058
  entropy T*S    EENTRO =         0.00000000
  eigenvalues    EBANDS =      -642.91386188
  atomic energy  EATOM  =     13909.35584658
  Solvation  Ediel_sol  =         0.00000000
  ---------------------------------------------------
  free energy    TOTEN  =        54.28880035 eV

  energy without entropy =       54.28880035  energy(sigma->0) =       54.28880035


--------------------------------------------------------------------------------------------------------




--------------------------------------- Iteration      1(  10)  ---------------------------------------


    POTLOK:  cpu time    0.9400: real time    0.9530
    SETDIJ:  cpu time    0.0160: real time    0.0138
     EDDAV:  cpu time    4.7400: real time    4.7401
       DOS:  cpu time    0.0000: real time    0.0005
    CHARGE:  cpu time    0.3320: real time    0.3318
    MIXING:  cpu time    0.0280: real time    0.0269
    --------------------------------------------
      LOOP:  cpu time    6.0560: real time    6.0661

 eigenvalue-minimisations  :   468
 total energy-change (2. order) :-0.1927015E+02  (-0.9646044E+00)
 number of electron     109.9999434 magnetization      21.8863400
 augmentation part       71.1855873 magnetization      13.7832283

 Broyden mixing:
  rms(total) = 0.54590E+00    rms(broyden)= 0.54453E+00
  rms(prec ) = 0.55065E+00
  weight for this iteration     100.00

 eigenvalues of (default mixing * dielectric matrix)
  average eigenvalue GAMMA=   0.9387
  1.6078  1.4006  0.6535  0.6535  0.3783

 Free energy of the ion-electron system (eV)
  ---------------------------------------------------
  alpha Z        PSCENC =         2.70862236
  Ewald energy   TEWEN  =     18624.92037997
  -Hartree energ DENC   =    -31230.44398457
  -exchange      EXHF   =         0.00000000
  -V(xc)+E(xc)   XCENC  =       486.67837264
  PAW double counting   =     12899.53709761   -13977.15348351
  entropy T*S    EENTRO =         0.00000000
  eigenvalues    EBANDS =      -680.58420474
  atomic energy  EATOM  =     13909.35584658
  Solvation  Ediel_sol  =         0.00000000
  ---------------------------------------------------
  free energy    TOTEN  =        35.01864632 eV

  energy without entropy =       35.01864632  energy(sigma->0) =       35.01864632


--------------------------------------------------------------------------------------------------------




--------------------------------------- Iteration      1(  11)  ---------------------------------------


    POTLOK:  cpu time    0.9440: real time    0.9557
    SETDIJ:  cpu time    0.0160: real time    0.0140
     EDDAV:  cpu time    4.1480: real time    4.1500
       DOS:  cpu time    0.0000: real time    0.0004
    CHARGE:  cpu time    0.3320: real time    0.3316
    MIXING:  cpu time    0.0280: real time    0.0282
    --------------------------------------------
      LOOP:  cpu time    5.4680: real time    5.4799

 eigenvalue-minimisations  :   392
 total energy-change (2. order) :-0.9460189E+01  (-0.6427965E+00)
 number of electron     109.9999437 magnetization      19.9712327
 augmentation part       71.0957875 magnetization      12.4060775

 Broyden mixing:
  rms(total) = 0.39412E+00    rms(broyden)= 0.39395E+00
  rms(prec ) = 0.39727E+00
  weight for this iteration     100.00

 eigenvalues of (default mixing * dielectric matrix)
  average eigenvalue GAMMA=   1.0520
  2.3179  1.5286  0.7544  0.7544  0.5411  0.4153

 Free energy of the ion-electron system (eV)
  ---------------------------------------------------
  alpha Z        PSCENC =         2.70862236
  Ewald energy   TEWEN  =     18624.92037997
  -Hartree energ DENC   =    -31242.80537323
  -exchange      EXHF   =         0.00000000
  -V(xc)+E(xc)   XCENC  =       479.54439700
  PAW double counting   =     12963.77054436   -14038.12385289
  entropy T*S    EENTRO =         0.00000000
  eigenvalues    EBANDS =      -673.81210723
  atomic energy  EATOM  =     13909.35584658
  Solvation  Ediel_sol  =         0.00000000
  ---------------------------------------------------
  free energy    TOTEN  =        25.55845692 eV

  energy without entropy =       25.55845692  energy(sigma->0) =       25.55845692


--------------------------------------------------------------------------------------------------------




--------------------------------------- Iteration      1(  12)  ---------------------------------------


    POTLOK:  cpu time    0.9400: real time    0.9538
    SETDIJ:  cpu time    0.0160: real time    0.0138
     EDDAV:  cpu time    4.2760: real time    4.2789
       DOS:  cpu time    0.0040: real time    0.0005
    CHARGE:  cpu time    0.3280: real time    0.3310
    MIXING:  cpu time    0.0320: real time    0.0303
    --------------------------------------------
      LOOP:  cpu time    5.5960: real time    5.6084

 eigenvalue-minimisations  :   408
 total energy-change (2. order) :-0.1289388E+02  (-0.6226723E+00)
 number of electron     109.9999421 magnetization      18.9438143
 augmentation part       71.3434658 magnetization      15.0123939

 Broyden mixing:
  rms(total) = 0.60481E+00    rms(broyden)= 0.60246E+00
  rms(prec ) = 0.61194E+00
  weight for this iteration     100.00

 eigenvalues of (default mixing * dielectric matrix)
  average eigenvalue GAMMA=   0.9600
  2.7214  1.2937  0.7872  0.7872  0.5472  0.4092  0.1744

 Free energy of the ion-electron system (eV)
  ---------------------------------------------------
  alpha Z        PSCENC =         2.70862236
  Ewald energy   TEWEN  =     18624.92037997
  -Hartree energ DENC   =    -31259.33469487
  -exchange      EXHF   =         0.00000000
  -V(xc)+E(xc)   XCENC  =       469.98591052
  PAW double counting   =     12987.09260052   -14061.10990359
  entropy T*S    EENTRO =         0.00000000
  eigenvalues    EBANDS =      -660.95418093
  atomic energy  EATOM  =     13909.35584658
  Solvation  Ediel_sol  =         0.00000000
  ---------------------------------------------------
  free energy    TOTEN  =        12.66458055 eV

  energy without entropy =       12.66458055  energy(sigma->0) =       12.66458055


--------------------------------------------------------------------------------------------------------




--------------------------------------- Iteration      1(  13)  ---------------------------------------


    POTLOK:  cpu time    0.9440: real time    0.9567
    SETDIJ:  cpu time    0.0120: real time    0.0151
     EDDAV:  cpu time    4.5920: real time    4.5915
       DOS:  cpu time    0.0000: real time    0.0005
    CHARGE:  cpu time    0.3320: real time    0.3307
    MIXING:  cpu time    0.0320: real time    0.0318
    --------------------------------------------
      LOOP:  cpu time    5.9120: real time    5.9263

 eigenvalue-minimisations  :   448
 total energy-change (2. order) :-0.5484753E+00  (-0.1963642E+00)
 number of electron     109.9999424 magnetization      16.8797403
 augmentation part       71.0730908 magnetization      13.1692341

 Broyden mixing:
  rms(total) = 0.42524E+00    rms(broyden)= 0.42505E+00
  rms(prec ) = 0.43041E+00
  weight for this iteration     100.00

 eigenvalues of (default mixing * dielectric matrix)
  average eigenvalue GAMMA=   1.0228
  3.1374  1.4130  0.7401  0.7401  0.6535  0.6535  0.4337  0.4114

 Free energy of the ion-electron system (eV)
  ---------------------------------------------------
  alpha Z        PSCENC =         2.70862236
  Ewald energy   TEWEN  =     18624.92037997
  -Hartree energ DENC   =    -31277.66187035
  -exchange      EXHF   =         0.00000000
  -V(xc)+E(xc)   XCENC  =       470.82127556
  PAW double counting   =     13028.28048940   -14103.63598387
  entropy T*S    EENTRO =         0.00000000
  eigenvalues    EBANDS =      -642.67265439
  atomic energy  EATOM  =     13909.35584658
  Solvation  Ediel_sol  =         0.00000000
  ---------------------------------------------------
  free energy    TOTEN  =        12.11610527 eV

  energy without entropy =       12.11610527  energy(sigma->0) =       12.11610527


--------------------------------------------------------------------------------------------------------




--------------------------------------- Iteration      1(  14)  ---------------------------------------


    POTLOK:  cpu time    0.9440: real time    0.9531
    SETDIJ:  cpu time    0.0120: real time    0.0141
     EDDAV:  cpu time    4.6000: real time    4.6000
       DOS:  cpu time    0.0000: real time    0.0004
    CHARGE:  cpu time    0.3320: real time    0.3311
    MIXING:  cpu time    0.0360: real time    0.0347
    --------------------------------------------
      LOOP:  cpu time    5.9240: real time    5.9334

 eigenvalue-minimisations  :   448
 total energy-change (2. order) :-0.7733341E+01  (-0.4686518E+00)
 number of electron     109.9999426 magnetization      14.1374806
 augmentation part       70.8858274 magnetization      10.7808484

 Broyden mixing:
  rms(total) = 0.28363E+00    rms(broyden)= 0.28358E+00
  rms(prec ) = 0.28662E+00
  weight for this iteration     100.00

 eigenvalues of (default mixing * dielectric matrix)
  average eigenvalue GAMMA=   1.2166
  4.6031  1.6847  0.8643  0.8643  0.8049  0.8049  0.5412  0.4152  0.3669

 Free energy of the ion-electron system (eV)
  ---------------------------------------------------
  alpha Z        PSCENC =         2.70862236
  Ewald energy   TEWEN  =     18624.92037997
  -Hartree energ DENC   =    -31296.58327402
  -exchange      EXHF   =         0.00000000
  -V(xc)+E(xc)   XCENC  =       465.35475865
  PAW double counting   =     13042.37202641   -14116.86018214
  entropy T*S    EENTRO =         0.00000000
  eigenvalues    EBANDS =      -626.88541376
  atomic energy  EATOM  =     13909.35584658
  Solvation  Ediel_sol  =         0.00000000
  ---------------------------------------------------
  free energy    TOTEN  =         4.38276405 eV

  energy without entropy =        4.38276405  energy(sigma->0) =        4.38276405


--------------------------------------------------------------------------------------------------------




--------------------------------------- Iteration      1(  15)  ---------------------------------------


    POTLOK:  cpu time    0.9440: real time    0.9532
    SETDIJ:  cpu time    0.0120: real time    0.0152
     EDDAV:  cpu time    4.9480: real time    4.9457
       DOS:  cpu time    0.0000: real time    0.0004
    CHARGE:  cpu time    0.3280: real time    0.3308
    MIXING:  cpu time    0.0400: real time    0.0381
    --------------------------------------------
      LOOP:  cpu time    6.2720: real time    6.2832

 eigenvalue-minimisations  :   492
 total energy-change (2. order) :-0.1287592E+02  (-0.8496866E+00)
 number of electron     109.9999427 magnetization      12.6756226
 augmentation part       70.7615611 magnetization       9.8509349

 Broyden mixing:
  rms(total) = 0.19121E+00    rms(broyden)= 0.19109E+00
  rms(prec ) = 0.19330E+00
  weight for this iteration     100.00

 eigenvalues of (default mixing * dielectric matrix)
  average eigenvalue GAMMA=   1.2905
  5.0633  2.2459  0.9461  0.9461  0.8728  0.8728  0.5862  0.5862  0.4237  0.3615

 Free energy of the ion-electron system (eV)
  ---------------------------------------------------
  alpha Z        PSCENC =         2.70862236
  Ewald energy   TEWEN  =     18624.92037997
  -Hartree energ DENC   =    -31303.86336685
  -exchange      EXHF   =         0.00000000
  -V(xc)+E(xc)   XCENC  =       455.07972215
  PAW double counting   =     13005.28156184   -14077.19617563
  entropy T*S    EENTRO =         0.00000000
  eigenvalues    EBANDS =      -624.77974432
  atomic energy  EATOM  =     13909.35584658
  Solvation  Ediel_sol  =         0.00000000
  ---------------------------------------------------
  free energy    TOTEN  =        -8.49315390 eV

  energy without entropy =       -8.49315390  energy(sigma->0) =       -8.49315390


--------------------------------------------------------------------------------------------------------




--------------------------------------- Iteration      1(  16)  ---------------------------------------


    POTLOK:  cpu time    0.9440: real time    0.9547
    SETDIJ:  cpu time    0.0160: real time    0.0149
     EDDAV:  cpu time    4.6000: real time    4.6000
       DOS:  cpu time    0.0000: real time    0.0004
    CHARGE:  cpu time    0.3320: real time    0.3316
    MIXING:  cpu time    0.0400: real time    0.0434
    --------------------------------------------
      LOOP:  cpu time    5.9360: real time    5.9449

 eigenvalue-minimisations  :   448
 total energy-change (2. order) :-0.5517564E+01  (-0.2704591E+00)
 number of electron     109.9999428 magnetization      10.7240485
 augmentation part       70.6716556 magnetization       8.1873013

 Broyden mixing:
  rms(total) = 0.15912E+00    rms(broyden)= 0.15908E+00
  rms(prec ) = 0.16218E+00
  weight for this iteration     100.00

 eigenvalues of (default mixing * dielectric matrix)
  average eigenvalue GAMMA=   1.3696
  5.7061  2.9115  1.0471  1.0471  0.8745  0.8745  0.7006  0.5732  0.5488  0.4219
  0.3604

 Free energy of the ion-electron system (eV)
  ---------------------------------------------------
  alpha Z        PSCENC =         2.70862236
  Ewald energy   TEWEN  =     18624.92037997
  -Hartree energ DENC   =    -31297.49239979
  -exchange      EXHF   =         0.00000000
  -V(xc)+E(xc)   XCENC  =       450.54247211
  PAW double counting   =     12964.55875158   -14035.86560491
  entropy T*S    EENTRO =         0.00000000
  eigenvalues    EBANDS =      -632.73878592
  atomic energy  EATOM  =     13909.35584658
  Solvation  Ediel_sol  =         0.00000000
  ---------------------------------------------------
  free energy    TOTEN  =       -14.01071802 eV

  energy without entropy =      -14.01071802  energy(sigma->0) =      -14.01071802


--------------------------------------------------------------------------------------------------------




--------------------------------------- Iteration      1(  17)  ---------------------------------------


    POTLOK:  cpu time    0.9480: real time    0.9559
    SETDIJ:  cpu time    0.0160: real time    0.0138
     EDDAV:  cpu time    4.4680: real time    4.4714
       DOS:  cpu time    0.0000: real time    0.0005
    CHARGE:  cpu time    0.3320: real time    0.3313
    MIXING:  cpu time    0.0560: real time    0.0536
    --------------------------------------------
      LOOP:  cpu time    5.8160: real time    5.8265

 eigenvalue-minimisations  :   432
 total energy-change (2. order) :-0.3899869E+01  (-0.1684599E+00)
 number of electron     109.9999427 magnetization       9.1915678
 augmentation part       70.9069030 magnetization       6.9546919

 Broyden mixing:
  rms(total) = 0.12866E+00    rms(broyden)= 0.12863E+00
  rms(prec ) = 0.13053E+00
  weight for this iteration     100.00

 eigenvalues of (default mixing * dielectric matrix)
  average eigenvalue GAMMA=   1.4252
  5.9875  3.4430  1.2584  1.2584  0.9464  0.9464  0.7164  0.7164  0.3612  0.4227
  0.5308  0.5144

 Free energy of the ion-electron system (eV)
  ---------------------------------------------------
  alpha Z        PSCENC =         2.70862236
  Ewald energy   TEWEN  =     18624.92037997
  -Hartree energ DENC   =    -31277.20089520
  -exchange      EXHF   =         0.00000000
  -V(xc)+E(xc)   XCENC  =       446.67789611
  PAW double counting   =     12902.58832644   -13971.04567074
  entropy T*S    EENTRO =         0.00000000
  eigenvalues    EBANDS =      -655.91509239
  atomic energy  EATOM  =     13909.35584658
  Solvation  Ediel_sol  =         0.00000000
  ---------------------------------------------------
  free energy    TOTEN  =       -17.91058687 eV

  energy without entropy =      -17.91058687  energy(sigma->0) =      -17.91058687


--------------------------------------------------------------------------------------------------------




--------------------------------------- Iteration      1(  18)  ---------------------------------------


    POTLOK:  cpu time    0.9440: real time    0.9570
    SETDIJ:  cpu time    0.0160: real time    0.0148
     EDDAV:  cpu time    4.3480: real time    4.3498
       DOS:  cpu time    0.0000: real time    0.0004
    CHARGE:  cpu time    0.3320: real time    0.3315
    MIXING:  cpu time    0.0600: real time    0.0605
    --------------------------------------------
      LOOP:  cpu time    5.7000: real time    5.7140

 eigenvalue-minimisations  :   416
 total energy-change (2. order) :-0.1434197E+01  (-0.4220317E-01)
 number of electron     109.9999427 magnetization       7.4874095
 augmentation part       70.8374897 magnetization       5.3306078

 Broyden mixing:
  rms(total) = 0.84953E-01    rms(broyden)= 0.84941E-01
  rms(prec ) = 0.86203E-01
  weight for this iteration     100.00

 eigenvalues of (default mixing * dielectric matrix)
  average eigenvalue GAMMA=   1.5291
  7.2989  3.4624  2.0508  0.9835  0.9835  0.9834  0.8256  0.8256  0.6440  0.3606
  0.4217  0.5191  0.5191

 Free energy of the ion-electron system (eV)
  ---------------------------------------------------
  alpha Z        PSCENC =         2.70862236
  Ewald energy   TEWEN  =     18624.92037997
  -Hartree energ DENC   =    -31272.25415477
  -exchange      EXHF   =         0.00000000
  -V(xc)+E(xc)   XCENC  =       445.43651912
  PAW double counting   =     12887.76957711   -13957.89370505
  entropy T*S    EENTRO =         0.00000000
  eigenvalues    EBANDS =      -659.38786926
  atomic energy  EATOM  =     13909.35584658
  Solvation  Ediel_sol  =         0.00000000
  ---------------------------------------------------
  free energy    TOTEN  =       -19.34478393 eV

  energy without entropy =      -19.34478393  energy(sigma->0) =      -19.34478393


--------------------------------------------------------------------------------------------------------




--------------------------------------- Iteration      1(  19)  ---------------------------------------


    POTLOK:  cpu time    0.9480: real time    0.9567
    SETDIJ:  cpu time    0.0120: real time    0.0145
     EDDAV:  cpu time    4.4760: real time    4.4743
       DOS:  cpu time    0.0000: real time    0.0005
    CHARGE:  cpu time    0.3320: real time    0.3309
    MIXING:  cpu time    0.0680: real time    0.0678
    --------------------------------------------
      LOOP:  cpu time    5.8360: real time    5.8447

 eigenvalue-minimisations  :   432
 total energy-change (2. order) :-0.8960729E+00  (-0.1568641E-01)
 number of electron     109.9999429 magnetization       6.4654147
 augmentation part       70.7437606 magnetization       4.3737242

 Broyden mixing:
  rms(total) = 0.57104E-01    rms(broyden)= 0.57094E-01
  rms(prec ) = 0.58502E-01
  weight for this iteration     100.00

 eigenvalues of (default mixing * dielectric matrix)
  average eigenvalue GAMMA=   1.6032
  8.4627  3.1855  2.8354  1.1008  1.1008  0.9429  0.9429  0.7321  0.7321  0.6120
  0.3608  0.4211  0.5082  0.5082

 Free energy of the ion-electron system (eV)
  ---------------------------------------------------
  alpha Z        PSCENC =         2.70862236
  Ewald energy   TEWEN  =     18624.92037997
  -Hartree energ DENC   =    -31270.38005244
  -exchange      EXHF   =         0.00000000
  -V(xc)+E(xc)   XCENC  =       444.66783363
  PAW double counting   =     12884.75489206   -13956.68723436
  entropy T*S    EENTRO =         0.00000000
  eigenvalues    EBANDS =      -659.58114463
  atomic energy  EATOM  =     13909.35584658
  Solvation  Ediel_sol  =         0.00000000
  ---------------------------------------------------
  free energy    TOTEN  =       -20.24085683 eV

  energy without entropy =      -20.24085683  energy(sigma->0) =      -20.24085683


--------------------------------------------------------------------------------------------------------




--------------------------------------- Iteration      1(  20)  ---------------------------------------


    POTLOK:  cpu time    0.9480: real time    0.9562
    SETDIJ:  cpu time    0.0160: real time    0.0142
     EDDAV:  cpu time    4.9120: real time    4.9144
       DOS:  cpu time    0.0000: real time    0.0004
    CHARGE:  cpu time    0.3320: real time    0.3320
    MIXING:  cpu time    0.0760: real time    0.0746
    --------------------------------------------
      LOOP:  cpu time    6.2840: real time    6.2917

 eigenvalue-minimisations  :   488
 total energy-change (2. order) :-0.5213482E+00  (-0.5114142E-02)
 number of electron     109.9999429 magnetization       5.7218766
 augmentation part       70.7202305 magnetization       3.6545588

 Broyden mixing:
  rms(total) = 0.47744E-01    rms(broyden)= 0.47740E-01
  rms(prec ) = 0.49006E-01
  weight for this iteration     100.00

 eigenvalues of (default mixing * dielectric matrix)
  average eigenvalue GAMMA=   1.6141
  8.8980  3.1632  3.1632  1.2385  1.2385  0.9621  0.9621  0.7971  0.7971  0.3608
  0.5855  0.5855  0.4216  0.5190  0.5190

 Free energy of the ion-electron system (eV)
  ---------------------------------------------------
  alpha Z        PSCENC =         2.70862236
  Ewald energy   TEWEN  =     18624.92037997
  -Hartree energ DENC   =    -31266.13012035
  -exchange      EXHF   =         0.00000000
  -V(xc)+E(xc)   XCENC  =       444.11555447
  PAW double counting   =     12883.40190308   -13955.91081220
  entropy T*S    EENTRO =         0.00000000
  eigenvalues    EBANDS =      -663.22357891
  atomic energy  EATOM  =     13909.35584658
  Solvation  Ediel_sol  =         0.00000000
  ---------------------------------------------------
  free energy    TOTEN  =       -20.76220500 eV

  energy without entropy =      -20.76220500  energy(sigma->0) =      -20.76220500


--------------------------------------------------------------------------------------------------------




--------------------------------------- Iteration      1(  21)  ---------------------------------------


    POTLOK:  cpu time    0.9480: real time    0.9598
    SETDIJ:  cpu time    0.0160: real time    0.0146
     EDDAV:  cpu time    5.0560: real time    5.0563
       DOS:  cpu time    0.0000: real time    0.0005
    CHARGE:  cpu time    0.3320: real time    0.3345
    MIXING:  cpu time    0.0840: real time    0.0820
    --------------------------------------------
      LOOP:  cpu time    6.4360: real time    6.4476

 eigenvalue-minimisations  :   504
 total energy-change (2. order) :-0.3295725E+00  (-0.2071810E-02)
 number of electron     109.9999429 magnetization       4.8750671
 augmentation part       70.7633085 magnetization       2.7960789

 Broyden mixing:
  rms(total) = 0.33057E-01    rms(broyden)= 0.33053E-01
  rms(prec ) = 0.33616E-01
  weight for this iteration     100.00

 eigenvalues of (default mixing * dielectric matrix)
  average eigenvalue GAMMA=   1.6903
  9.3613  4.2373  2.4858  2.4858  0.9561  0.9561  1.0402  1.0402  0.7532  0.7532
  0.6445  0.3607  0.4214  0.5198  0.5198  0.5093

 Free energy of the ion-electron system (eV)
  ---------------------------------------------------
  alpha Z        PSCENC =         2.70862236
  Ewald energy   TEWEN  =     18624.92037997
  -Hartree energ DENC   =    -31259.26228353
  -exchange      EXHF   =         0.00000000
  -V(xc)+E(xc)   XCENC  =       443.66063144
  PAW double counting   =     12883.60711903   -13955.71871879
  entropy T*S    EENTRO =         0.00000000
  eigenvalues    EBANDS =      -670.36337452
  atomic energy  EATOM  =     13909.35584658
  Solvation  Ediel_sol  =         0.00000000
  ---------------------------------------------------
  free energy    TOTEN  =       -21.09177747 eV

  energy without entropy =      -21.09177747  energy(sigma->0) =      -21.09177747


--------------------------------------------------------------------------------------------------------




--------------------------------------- Iteration      1(  22)  ---------------------------------------


    POTLOK:  cpu time    0.9440: real time    0.9603
    SETDIJ:  cpu time    0.0120: real time    0.0144
     EDDAV:  cpu time    4.8040: real time    4.8018
       DOS:  cpu time    0.0000: real time    0.0007
    CHARGE:  cpu time    0.3320: real time    0.3329
    MIXING:  cpu time    0.0880: real time    0.0891
    --------------------------------------------
      LOOP:  cpu time    6.1800: real time    6.1991

 eigenvalue-minimisations  :   472
 total energy-change (2. order) :-0.4353845E+00  (-0.1413719E-02)
 number of electron     109.9999428 magnetization       4.3782919
 augmentation part       70.8073694 magnetization       2.2882110

 Broyden mixing:
  rms(total) = 0.27974E-01    rms(broyden)= 0.27970E-01
  rms(prec ) = 0.28569E-01
  weight for this iteration     100.00

 eigenvalues of (default mixing * dielectric matrix)
  average eigenvalue GAMMA=   1.7110
  9.6114  4.7930  2.6813  2.6813  0.9584  0.9584  1.1006  1.1006  0.7937  0.7937
  0.3607  0.6379  0.5979  0.5979  0.4214  0.4990  0.4990

 Free energy of the ion-electron system (eV)
  ---------------------------------------------------
  alpha Z        PSCENC =         2.70862236
  Ewald energy   TEWEN  =     18624.92037997
  -Hartree energ DENC   =    -31253.05363761
  -exchange      EXHF   =         0.00000000
  -V(xc)+E(xc)   XCENC  =       443.13741667
  PAW double counting   =     12884.74189755   -13956.33280228
  entropy T*S    EENTRO =         0.00000000
  eigenvalues    EBANDS =      -677.00488521
  atomic energy  EATOM  =     13909.35584658
  Solvation  Ediel_sol  =         0.00000000
  ---------------------------------------------------
  free energy    TOTEN  =       -21.52716197 eV

  energy without entropy =      -21.52716197  energy(sigma->0) =      -21.52716197


--------------------------------------------------------------------------------------------------------




--------------------------------------- Iteration      1(  23)  ---------------------------------------


    POTLOK:  cpu time    0.9440: real time    0.9505
    SETDIJ:  cpu time    0.0160: real time    0.0140
     EDDAV:  cpu time    4.4760: real time    4.4793
       DOS:  cpu time    0.0000: real time    0.0005
    CHARGE:  cpu time    0.3360: real time    0.3333
    MIXING:  cpu time    0.0960: real time    0.0971
    --------------------------------------------
      LOOP:  cpu time    5.8680: real time    5.8747

 eigenvalue-minimisations  :   432
 total energy-change (2. order) :-0.2236405E+00  (-0.2951904E-03)
 number of electron     109.9999428 magnetization       3.7961353
 augmentation part       70.7914889 magnetization       1.7095195

 Broyden mixing:
  rms(total) = 0.19967E-01    rms(broyden)= 0.19966E-01
  rms(prec ) = 0.20327E-01
  weight for this iteration     100.00

 eigenvalues of (default mixing * dielectric matrix)
  average eigenvalue GAMMA=   1.7257
  9.9777  5.1042  2.8004  2.8004  0.9614  0.9614  1.1478  1.1478  0.8692  0.8692
  0.7528  0.7528  0.3607  0.4214  0.5836  0.5202  0.5202  0.5108

 Free energy of the ion-electron system (eV)
  ---------------------------------------------------
  alpha Z        PSCENC =         2.70862236
  Ewald energy   TEWEN  =     18624.92037997
  -Hartree energ DENC   =    -31252.55569704
  -exchange      EXHF   =         0.00000000
  -V(xc)+E(xc)   XCENC  =       442.94969018
  PAW double counting   =     12888.72345951   -13960.45736362
  entropy T*S    EENTRO =        -0.00000000
  eigenvalues    EBANDS =      -677.39574040
  atomic energy  EATOM  =     13909.35584658
  Solvation  Ediel_sol  =         0.00000000
  ---------------------------------------------------
  free energy    TOTEN  =       -21.75080247 eV

  energy without entropy =      -21.75080247  energy(sigma->0) =      -21.75080247


--------------------------------------------------------------------------------------------------------




--------------------------------------- Iteration      1(  24)  ---------------------------------------


    POTLOK:  cpu time    0.9440: real time    0.9543
    SETDIJ:  cpu time    0.0160: real time    0.0149
     EDDAV:  cpu time    4.4920: real time    4.4925
       DOS:  cpu time    0.0000: real time    0.0005
    CHARGE:  cpu time    0.3320: real time    0.3326
    MIXING:  cpu time    0.1040: real time    0.1048
    --------------------------------------------
      LOOP:  cpu time    5.8880: real time    5.8995

 eigenvalue-minimisations  :   432
 total energy-change (2. order) :-0.2218002E+00  (-0.3960572E-03)
 number of electron     109.9999428 magnetization       3.2809449
 augmentation part       70.7677598 magnetization       1.2031256

 Broyden mixing:
  rms(total) = 0.14651E-01    rms(broyden)= 0.14649E-01
  rms(prec ) = 0.14876E-01
  weight for this iteration     100.00

 eigenvalues of (default mixing * dielectric matrix)
  average eigenvalue GAMMA=   1.7688
 10.4148  5.6316  2.9660  2.9660  1.7902  0.9605  0.9605  1.0636  1.0636  0.8111
  0.8111  0.6939  0.3607  0.5990  0.5990  0.4214  0.5053  0.5053  0.4836

 Free energy of the ion-electron system (eV)
  ---------------------------------------------------
  alpha Z        PSCENC =         2.70862236
  Ewald energy   TEWEN  =     18624.92037997
  -Hartree energ DENC   =    -31252.29826581
  -exchange      EXHF   =         0.00000000
  -V(xc)+E(xc)   XCENC  =       442.76571527
  PAW double counting   =     12892.09201151   -13963.97179631
  entropy T*S    EENTRO =         0.00000000
  eigenvalues    EBANDS =      -677.54511620
  atomic energy  EATOM  =     13909.35584658
  Solvation  Ediel_sol  =         0.00000000
  ---------------------------------------------------
  free energy    TOTEN  =       -21.97260264 eV

  energy without entropy =      -21.97260264  energy(sigma->0) =      -21.97260264


--------------------------------------------------------------------------------------------------------




--------------------------------------- Iteration      1(  25)  ---------------------------------------


    POTLOK:  cpu time    0.9440: real time    0.9564
    SETDIJ:  cpu time    0.0160: real time    0.0145
     EDDAV:  cpu time    4.8560: real time    4.8557
       DOS:  cpu time    0.0000: real time    0.0005
    CHARGE:  cpu time    0.3320: real time    0.3335
    MIXING:  cpu time    0.1120: real time    0.1129
    --------------------------------------------
      LOOP:  cpu time    6.2600: real time    6.2736

 eigenvalue-minimisations  :   480
 total energy-change (2. order) :-0.1910293E+00  (-0.2126667E-03)
 number of electron     109.9999428 magnetization       2.8429921
 augmentation part       70.7648300 magnetization       0.7708146

 Broyden mixing:
  rms(total) = 0.11912E-01    rms(broyden)= 0.11911E-01
  rms(prec ) = 0.12107E-01
  weight for this iteration     100.00

 eigenvalues of (default mixing * dielectric matrix)
  average eigenvalue GAMMA=   1.8374
 10.6605  6.7904  3.1804  2.9054  2.3039  0.9631  0.9631  1.1112  1.1112  0.8844
  0.8844  0.7804  0.7804  0.3607  0.6183  0.4214  0.5228  0.5228  0.5086  0.4742

 Free energy of the ion-electron system (eV)
  ---------------------------------------------------
  alpha Z        PSCENC =         2.70862236
  Ewald energy   TEWEN  =     18624.92037997
  -Hartree energ DENC   =    -31251.12364151
  -exchange      EXHF   =         0.00000000
  -V(xc)+E(xc)   XCENC  =       442.56793650
  PAW double counting   =     12892.70936944   -13964.50785656
  entropy T*S    EENTRO =        -0.00000000
  eigenvalues    EBANDS =      -678.79428876
  atomic energy  EATOM  =     13909.35584658
  Solvation  Ediel_sol  =         0.00000000
  ---------------------------------------------------
  free energy    TOTEN  =       -22.16363199 eV

  energy without entropy =      -22.16363199  energy(sigma->0) =      -22.16363199


--------------------------------------------------------------------------------------------------------




--------------------------------------- Iteration      1(  26)  ---------------------------------------


    POTLOK:  cpu time    0.9440: real time    0.9567
    SETDIJ:  cpu time    0.0160: real time    0.0145
     EDDAV:  cpu time    4.8680: real time    4.8697
       DOS:  cpu time    0.0000: real time    0.0005
    CHARGE:  cpu time    0.3320: real time    0.3320
    MIXING:  cpu time    0.1240: real time    0.1211
    --------------------------------------------
      LOOP:  cpu time    6.2840: real time    6.2944

 eigenvalue-minimisations  :   480
 total energy-change (2. order) :-0.1483288E+00  (-0.1368338E-03)
 number of electron     109.9999428 magnetization       2.5822735
 augmentation part       70.7785312 magnetization       0.5050411

 Broyden mixing:
  rms(total) = 0.81814E-02    rms(broyden)= 0.81805E-02
  rms(prec ) = 0.83583E-02
  weight for this iteration     100.00

 eigenvalues of (default mixing * dielectric matrix)
  average eigenvalue GAMMA=   1.8858
 11.1006  7.6066  3.3307  3.3307  2.4173  1.2558  0.9612  0.9612  1.0788  1.0788
  0.8298  0.8298  0.6959  0.6959  0.3607  0.6178  0.4214  0.5175  0.5175  0.5218
  0.4729

 Free energy of the ion-electron system (eV)
  ---------------------------------------------------
  alpha Z        PSCENC =         2.70862236
  Ewald energy   TEWEN  =     18624.92037997
  -Hartree energ DENC   =    -31249.40789510
  -exchange      EXHF   =         0.00000000
  -V(xc)+E(xc)   XCENC  =       442.38788899
  PAW double counting   =     12891.44517370   -13963.12093807
  entropy T*S    EENTRO =         0.00000000
  eigenvalues    EBANDS =      -680.60103917
  atomic energy  EATOM  =     13909.35584658
  Solvation  Ediel_sol  =         0.00000000
  ---------------------------------------------------
  free energy    TOTEN  =       -22.31196074 eV

  energy without entropy =      -22.31196074  energy(sigma->0) =      -22.31196074


--------------------------------------------------------------------------------------------------------




--------------------------------------- Iteration      1(  27)  ---------------------------------------


    POTLOK:  cpu time    0.9440: real time    0.9563
    SETDIJ:  cpu time    0.0160: real time    0.0144
     EDDAV:  cpu time    4.5120: real time    4.5118
       DOS:  cpu time    0.0000: real time    0.0006
    CHARGE:  cpu time    0.3320: real time    0.3318
    MIXING:  cpu time    0.1280: real time    0.1297
    --------------------------------------------
      LOOP:  cpu time    5.9320: real time    5.9446

 eigenvalue-minimisations  :   436
 total energy-change (2. order) :-0.5421773E-01  (-0.5825199E-04)
 number of electron     109.9999428 magnetization       2.3971195
 augmentation part       70.7831511 magnetization       0.3194201

 Broyden mixing:
  rms(total) = 0.72802E-02    rms(broyden)= 0.72796E-02
  rms(prec ) = 0.74761E-02
  weight for this iteration     100.00

 eigenvalues of (default mixing * dielectric matrix)
  average eigenvalue GAMMA=   1.9073
 11.7194  7.7787  4.1939  2.7375  2.7375  1.2419  1.2419  0.9634  0.9634  0.9451
  0.9451  0.8929  0.7987  0.7987  0.3607  0.4214  0.5977  0.5977  0.5218  0.5140
  0.5140  0.4750

 Free energy of the ion-electron system (eV)
  ---------------------------------------------------
  alpha Z        PSCENC =         2.70862236
  Ewald energy   TEWEN  =     18624.92037997
  -Hartree energ DENC   =    -31248.90305478
  -exchange      EXHF   =         0.00000000
  -V(xc)+E(xc)   XCENC  =       442.32760709
  PAW double counting   =     12890.09639666   -13961.77331746
  entropy T*S    EENTRO =         0.00000000
  eigenvalues    EBANDS =      -681.09865890
  atomic energy  EATOM  =     13909.35584658
  Solvation  Ediel_sol  =         0.00000000
  ---------------------------------------------------
  free energy    TOTEN  =       -22.36617848 eV

  energy without entropy =      -22.36617848  energy(sigma->0) =      -22.36617848


--------------------------------------------------------------------------------------------------------




--------------------------------------- Iteration      1(  28)  ---------------------------------------


    POTLOK:  cpu time    0.9480: real time    0.9556
    SETDIJ:  cpu time    0.0120: real time    0.0147
     EDDAV:  cpu time    5.1200: real time    5.1184
       DOS:  cpu time    0.0000: real time    0.0004
    CHARGE:  cpu time    0.3320: real time    0.3320
    MIXING:  cpu time    0.1360: real time    0.1385
    --------------------------------------------
      LOOP:  cpu time    6.5480: real time    6.5596

 eigenvalue-minimisations  :   512
 total energy-change (2. order) :-0.2675240E-01  (-0.4140661E-04)
 number of electron     109.9999428 magnetization       2.2277148
 augmentation part       70.7729884 magnetization       0.1535567

 Broyden mixing:
  rms(total) = 0.41930E-02    rms(broyden)= 0.41921E-02
  rms(prec ) = 0.42713E-02
  weight for this iteration     100.00

 eigenvalues of (default mixing * dielectric matrix)
  average eigenvalue GAMMA=   1.9611
 12.4260  8.0802  4.8292  2.8284  2.8284  1.6896  1.2848  0.9622  0.9622  1.0119
  1.0119  0.8997  0.8246  0.8246  0.3607  0.6489  0.6241  0.4214  0.5884  0.5165
  0.5165  0.4903  0.4755

 Free energy of the ion-electron system (eV)
  ---------------------------------------------------
  alpha Z        PSCENC =         2.70862236
  Ewald energy   TEWEN  =     18624.92037997
  -Hartree energ DENC   =    -31249.64481901
  -exchange      EXHF   =         0.00000000
  -V(xc)+E(xc)   XCENC  =       442.32232374
  PAW double counting   =     12890.88207591   -13962.68490291
  entropy T*S    EENTRO =         0.00000000
  eigenvalues    EBANDS =      -680.25245751
  atomic energy  EATOM  =     13909.35584658
  Solvation  Ediel_sol  =         0.00000000
  ---------------------------------------------------
  free energy    TOTEN  =       -22.39293087 eV

  energy without entropy =      -22.39293087  energy(sigma->0) =      -22.39293087


--------------------------------------------------------------------------------------------------------




--------------------------------------- Iteration      1(  29)  ---------------------------------------


    POTLOK:  cpu time    0.9480: real time    0.9580
    SETDIJ:  cpu time    0.0120: real time    0.0138
     EDDAV:  cpu time    4.8360: real time    4.8383
       DOS:  cpu time    0.0040: real time    0.0005
    CHARGE:  cpu time    0.3320: real time    0.3322
    MIXING:  cpu time    0.1480: real time    0.1484
    --------------------------------------------
      LOOP:  cpu time    6.2800: real time    6.2913

 eigenvalue-minimisations  :   476
 total energy-change (2. order) :-0.3326174E-01  (-0.2395139E-04)
 number of electron     109.9999428 magnetization       2.1581053
 augmentation part       70.7675677 magnetization       0.0845652

 Broyden mixing:
  rms(total) = 0.46093E-02    rms(broyden)= 0.46090E-02
  rms(prec ) = 0.47202E-02
  weight for this iteration     100.00

 eigenvalues of (default mixing * dielectric matrix)
  average eigenvalue GAMMA=   1.9702
 12.6849  8.5806  4.7630  2.9386  2.9386  2.1740  1.1969  1.1969  0.9629  0.9629
  0.9575  0.9575  0.8015  0.8015  0.7866  0.3607  0.6329  0.6329  0.4214  0.5374
  0.5128  0.5128  0.4996  0.4703

 Free energy of the ion-electron system (eV)
  ---------------------------------------------------
  alpha Z        PSCENC =         2.70862236
  Ewald energy   TEWEN  =     18624.92037997
  -Hartree energ DENC   =    -31250.01151166
  -exchange      EXHF   =         0.00000000
  -V(xc)+E(xc)   XCENC  =       442.29639882
  PAW double counting   =     12891.60896710   -13963.46888833
  entropy T*S    EENTRO =         0.00000000
  eigenvalues    EBANDS =      -679.83600746
  atomic energy  EATOM  =     13909.35584658
  Solvation  Ediel_sol  =         0.00000000
  ---------------------------------------------------
  free energy    TOTEN  =       -22.42619262 eV

  energy without entropy =      -22.42619262  energy(sigma->0) =      -22.42619262


--------------------------------------------------------------------------------------------------------




--------------------------------------- Iteration      1(  30)  ---------------------------------------


    POTLOK:  cpu time    0.9440: real time    0.9585
    SETDIJ:  cpu time    0.0120: real time    0.0145
     EDDAV:  cpu time    4.4560: real time    4.4563
       DOS:  cpu time    0.0040: real time    0.0006
    CHARGE:  cpu time    0.3320: real time    0.3318
    MIXING:  cpu time    0.1560: real time    0.1578
    --------------------------------------------
      LOOP:  cpu time    5.9040: real time    5.9195

 eigenvalue-minimisations  :   428
 total energy-change (2. order) :-0.1778779E-01  (-0.1048416E-04)
 number of electron     109.9999428 magnetization       2.1099908
 augmentation part       70.7714448 magnetization       0.0352748

 Broyden mixing:
  rms(total) = 0.23399E-02    rms(broyden)= 0.23397E-02
  rms(prec ) = 0.23943E-02
  weight for this iteration     100.00

 eigenvalues of (default mixing * dielectric matrix)
  average eigenvalue GAMMA=   1.9895
 13.1301  8.8262  5.0589  3.3719  2.5574  2.5574  1.2712  1.2712  0.9627  0.9627
  0.9610  0.9610  0.9969  0.7997  0.7997  0.6678  0.6678  0.3607  0.5969  0.4214
  0.5335  0.5162  0.5162  0.4983  0.4703

 Free energy of the ion-electron system (eV)
  ---------------------------------------------------
  alpha Z        PSCENC =         2.70862236
  Ewald energy   TEWEN  =     18624.92037997
  -Hartree energ DENC   =    -31249.66461074
  -exchange      EXHF   =         0.00000000
  -V(xc)+E(xc)   XCENC  =       442.27061031
  PAW double counting   =     12890.66005931   -13962.48474555
  entropy T*S    EENTRO =         0.00000000
  eigenvalues    EBANDS =      -680.21014265
  atomic energy  EATOM  =     13909.35584658
  Solvation  Ediel_sol  =         0.00000000
  ---------------------------------------------------
  free energy    TOTEN  =       -22.44398041 eV

  energy without entropy =      -22.44398041  energy(sigma->0) =      -22.44398041


--------------------------------------------------------------------------------------------------------




--------------------------------------- Iteration      1(  31)  ---------------------------------------


    POTLOK:  cpu time    0.9480: real time    0.9639
    SETDIJ:  cpu time    0.0120: real time    0.0141
     EDDAV:  cpu time    3.4400: real time    3.4398
       DOS:  cpu time    0.0000: real time    0.0005
    CHARGE:  cpu time    0.3360: real time    0.3333
    MIXING:  cpu time    0.1640: real time    0.1656
    --------------------------------------------
      LOOP:  cpu time    4.9000: real time    4.9172

 eigenvalue-minimisations  :   296
 total energy-change (2. order) :-0.6388204E-02  (-0.3022778E-05)
 number of electron     109.9999428 magnetization       2.0664644
 augmentation part       70.7726559 magnetization      -0.0082421

 Broyden mixing:
  rms(total) = 0.17038E-02    rms(broyden)= 0.17037E-02
  rms(prec ) = 0.17430E-02
  weight for this iteration     100.00

 eigenvalues of (default mixing * dielectric matrix)
  average eigenvalue GAMMA=   2.0196
 13.6020  8.9955  5.6169  3.3317  2.7367  2.7367  1.6789  1.1721  1.1721  0.9628
  0.9628  0.9821  0.9821  0.7987  0.7987  0.7017  0.7017  0.3607  0.6536  0.6083
  0.4214  0.5412  0.5123  0.5123  0.4963  0.4703

 Free energy of the ion-electron system (eV)
  ---------------------------------------------------
  alpha Z        PSCENC =         2.70862236
  Ewald energy   TEWEN  =     18624.92037997
  -Hartree energ DENC   =    -31249.67062445
  -exchange      EXHF   =         0.00000000
  -V(xc)+E(xc)   XCENC  =       442.26305915
  PAW double counting   =     12890.40796477   -13962.21434629
  entropy T*S    EENTRO =         0.00000000
  eigenvalues    EBANDS =      -680.22127070
  atomic energy  EATOM  =     13909.35584658
  Solvation  Ediel_sol  =         0.00000000
  ---------------------------------------------------
  free energy    TOTEN  =       -22.45036862 eV

  energy without entropy =      -22.45036862  energy(sigma->0) =      -22.45036862


--------------------------------------------------------------------------------------------------------




--------------------------------------- Iteration      1(  32)  ---------------------------------------


    POTLOK:  cpu time    0.9440: real time    0.9546
    SETDIJ:  cpu time    0.0160: real time    0.0144
     EDDAV:  cpu time    3.3040: real time    3.3072
       DOS:  cpu time    0.0000: real time    0.0004
    CHARGE:  cpu time    0.3360: real time    0.3333
    MIXING:  cpu time    0.1720: real time    0.1712
    --------------------------------------------
      LOOP:  cpu time    4.7720: real time    4.7812

 eigenvalue-minimisations  :   280
 total energy-change (2. order) :-0.6333429E-02  (-0.2842380E-05)
 number of electron     109.9999428 magnetization       2.0438891
 augmentation part       70.7727383 magnetization      -0.0308675

 Broyden mixing:
  rms(total) = 0.12362E-02    rms(broyden)= 0.12361E-02
  rms(prec ) = 0.12664E-02
  weight for this iteration     100.00

 eigenvalues of (default mixing * dielectric matrix)
  average eigenvalue GAMMA=   2.0312
 13.8730  9.3020  5.8284  3.8874  2.7252  2.7252  1.8451  0.9626  0.9626  1.1696
  1.1696  1.0742  0.9665  0.9665  0.7870  0.7870  0.6871  0.6871  0.3607  0.6066
  0.5776  0.4214  0.5176  0.5176  0.4853  0.4853  0.4634

 Free energy of the ion-electron system (eV)
  ---------------------------------------------------
  alpha Z        PSCENC =         2.70862236
  Ewald energy   TEWEN  =     18624.92037997
  -Hartree energ DENC   =    -31249.79428012
  -exchange      EXHF   =         0.00000000
  -V(xc)+E(xc)   XCENC  =       442.25855377
  PAW double counting   =     12890.65311784   -13962.44433671
  entropy T*S    EENTRO =         0.00000000
  eigenvalues    EBANDS =      -680.11460573
  atomic energy  EATOM  =     13909.35584658
  Solvation  Ediel_sol  =         0.00000000
  ---------------------------------------------------
  free energy    TOTEN  =       -22.45670205 eV

  energy without entropy =      -22.45670205  energy(sigma->0) =      -22.45670205


--------------------------------------------------------------------------------------------------------




--------------------------------------- Iteration      1(  33)  ---------------------------------------


    POTLOK:  cpu time    0.9440: real time    0.9562
    SETDIJ:  cpu time    0.0120: real time    0.0135
     EDDAV:  cpu time    3.7880: real time    3.7883
       DOS:  cpu time    0.0000: real time    0.0005
    CHARGE:  cpu time    0.3360: real time    0.3332
    MIXING:  cpu time    0.1760: real time    0.1777
    --------------------------------------------
      LOOP:  cpu time    5.2560: real time    5.2693

 eigenvalue-minimisations  :   340
 total energy-change (2. order) :-0.2356033E-02  (-0.3410814E-05)
 number of electron     109.9999428 magnetization       2.0291151
 augmentation part       70.7738782 magnetization      -0.0460126

 Broyden mixing:
  rms(total) = 0.94069E-03    rms(broyden)= 0.94054E-03
  rms(prec ) = 0.96967E-03
  weight for this iteration     100.00

 eigenvalues of (default mixing * dielectric matrix)
  average eigenvalue GAMMA=   2.0378
 14.0738  9.5220  6.0415  4.3233  2.7650  2.7650  1.8433  1.3819  1.1930  1.1930
  0.9627  0.9627  0.9681  0.9681  0.7925  0.7925  0.7177  0.6816  0.6816  0.3607
  0.6412  0.4214  0.5447  0.5151  0.5151  0.4857  0.4838  0.4610

 Free energy of the ion-electron system (eV)
  ---------------------------------------------------
  alpha Z        PSCENC =         2.70862236
  Ewald energy   TEWEN  =     18624.92037997
  -Hartree energ DENC   =    -31249.78476127
[...]
     17      -6.2645      1.00000
     18      -6.2154      1.00000
     19      -6.2081      1.00000
     20      -6.1939      1.00000
     21      -6.1889      1.00000
     22      -6.1400      1.00000
     23      -6.1089      1.00000
     24      -6.0964      1.00000
     25      -5.9216      1.00000
     26      -5.9087      1.00000
     27      -5.8898      1.00000
     28      -5.8841      1.00000
     29      -5.8671      1.00000
     30      -5.7613      1.00000
     31      -5.7474      1.00000
     32      -5.5510      1.00000
     33      -5.5375      1.00000
     34      -5.5263      1.00000
     35      -5.4757      1.00000
     36      -5.4712      1.00000
     37      -5.4094      1.00000
     38      -5.4053      1.00000
     39      -5.3832      1.00000
     40      -5.3790      1.00000
     41      -5.3703      1.00000
     42      -5.3488      1.00000
     43      -5.3180      1.00000
     44      -5.3145      1.00000
     45      -5.2751      1.00000
     46      -5.2701      1.00000
     47      -5.2667      1.00000
     48      -5.2482      1.00000
     49      -5.2440      1.00000
     50      -5.2068      1.00000
     51      -5.2026      1.00000
     52      -5.0911      1.00000
     53      -5.0135      1.00000
     54      -4.9974      1.00000
     55      -3.2201      0.00000
     56      -3.2104      0.00000
     57      -3.2009      0.00000
     58      -2.8126      0.00000
     59      -2.8007      0.00000
     60      -2.7775      0.00000
     61      -1.1680      0.00000
     62      -0.9480      0.00000
     63      -0.9333      0.00000
     64      -0.6113      0.00000
     65      -0.5867      0.00000
     66      -0.5175      0.00000
     67      -0.4959      0.00000
     68      -0.4912      0.00000
     69      -0.2143      0.00000
     70      -0.0172      0.00000
     71       0.0053      0.00000
     72       0.1473      0.00000
     73       0.1581      0.00000
     74       0.1830      0.00000
     75       0.1876      0.00000
     76       0.1884      0.00000
     77       0.1967      0.00000
     78       0.3162      0.00000
     79       0.3257      0.00000
     80       0.3290      0.00000
     81       0.3324      0.00000
     82       0.3506      0.00000
     83       0.3544      0.00000
     84       0.3583      0.00000


--------------------------------------------------------------------------------------------------------


 soft charge-density along one line, spin component           1
         0         1         2         3         4         5         6         7         8         9
 total charge-density along one line
 
 soft charge-density along one line, spin component           2
         0         1         2         3         4         5         6         7         8         9
 total charge-density along one line
 
 pseudopotential strength for first ion, spin component:           1
-10.653  -0.007  -0.007   0.003  -0.001   1.112   0.004   0.005
 -0.007 -10.645   0.002   0.005  -0.004   0.004   1.107  -0.002
 -0.007   0.002 -10.639  -0.003   0.006   0.005  -0.002   1.103
  0.003   0.005  -0.003 -10.655  -0.020  -0.002  -0.004   0.002
 -0.001  -0.004   0.006  -0.020 -10.662   0.001   0.003  -0.004
  1.112   0.004   0.005  -0.002   0.001   6.238  -0.000  -0.003
  0.004   1.107  -0.002  -0.004   0.003  -0.000   6.238   0.001
  0.005  -0.002   1.103   0.002  -0.004  -0.003   0.001   6.243
 -0.002  -0.004   0.002   1.114   0.013   0.001   0.002   0.001
  0.001   0.003  -0.004   0.013   1.118  -0.001  -0.002   0.000
 -0.001  -0.001   0.001  -0.000   0.001  -0.001  -0.001  -0.001
 -0.002  -0.002   0.002  -0.001   0.002  -0.002  -0.001  -0.002
  0.018   0.009   0.001   0.000   0.001  -0.011  -0.006  -0.000
  0.000  -0.001   0.011   0.017  -0.001   0.000   0.001  -0.007
 -0.001   0.000  -0.010   0.008   0.017   0.001   0.000   0.006
  0.019   0.010   0.000  -0.000   0.000  -0.011  -0.005   0.000
 -0.000  -0.001   0.011   0.018  -0.001   0.000   0.001  -0.006
 -0.001  -0.000  -0.011   0.008   0.018   0.001   0.000   0.006
 pseudopotential strength for first ion, spin component:           2
-10.655  -0.011  -0.004   0.004  -0.002   1.113   0.008   0.003
 -0.011 -10.641  -0.002   0.002  -0.002   0.008   1.103   0.001
 -0.004  -0.002 -10.634  -0.006   0.006   0.003   0.001   1.097
  0.004   0.002  -0.006 -10.652  -0.023  -0.003  -0.002   0.004
 -0.002  -0.002   0.006  -0.023 -10.664   0.002   0.002  -0.004
  1.113   0.008   0.003  -0.003   0.002   6.230  -0.004  -0.002
  0.008   1.103   0.001  -0.002   0.002  -0.004   6.235  -0.001
  0.003   0.001   1.097   0.004  -0.004  -0.002  -0.001   6.242
 -0.003  -0.002   0.004   1.110   0.017   0.002   0.001  -0.002
  0.002   0.002  -0.004   0.017   1.119  -0.001  -0.001  -0.000
 -0.001  -0.001  -0.002   0.003   0.001  -0.000  -0.000   0.001
 -0.002  -0.002  -0.003   0.005   0.001  -0.001  -0.000   0.002
  0.019   0.010   0.001   0.000   0.002  -0.014  -0.007  -0.001
  0.000  -0.003   0.011   0.018  -0.001  -0.000   0.004  -0.008
 -0.003   0.000  -0.010   0.008   0.017   0.004  -0.000   0.008
  0.021   0.011   0.001   0.000   0.002  -0.015  -0.008  -0.001
  0.000  -0.004   0.012   0.019  -0.001  -0.000   0.005  -0.009
 -0.004   0.000  -0.011   0.009   0.019   0.005  -0.000   0.009
 total augmentation occupancy for first ion, spin component:           1
  1.959   0.010  -0.002   0.002  -0.002  -0.018  -0.002   0.003  -0.002   0.002   0.002   0.002  -0.046   0.005   0.007   0.027
  0.010   1.945  -0.002  -0.000  -0.001  -0.002  -0.015   0.001  -0.001   0.002  -0.000   0.002  -0.025   0.001   0.005   0.014
 -0.002  -0.002   1.953   0.008  -0.004   0.003   0.001  -0.020  -0.001  -0.005  -0.020  -0.005  -0.011  -0.027   0.025   0.002
  0.002  -0.000   0.008   1.949  -0.005  -0.002  -0.001  -0.001  -0.008   0.010   0.008   0.004  -0.001  -0.053  -0.039  -0.000
 -0.002  -0.001  -0.004  -0.005   1.948   0.002   0.002  -0.005   0.010  -0.012  -0.026  -0.003  -0.021  -0.013  -0.070   0.003
 -0.018  -0.002   0.003  -0.002   0.002   0.009   0.002   0.001  -0.001   0.001  -0.015   0.002  -0.021   0.000   0.006   0.001
 -0.002  -0.015   0.001  -0.001   0.002   0.002   0.006  -0.000  -0.001   0.001  -0.010   0.001  -0.011   0.007  -0.000   0.001
  0.003   0.001  -0.020  -0.001  -0.005   0.001  -0.000   0.008   0.002  -0.003   0.004   0.001  -0.005  -0.017   0.014   0.000
 -0.002  -0.001  -0.001  -0.008   0.010  -0.001  -0.001   0.002   0.010   0.001   0.021  -0.005   0.002  -0.024  -0.009  -0.000
  0.002   0.002  -0.005   0.010  -0.012   0.001   0.001  -0.003   0.001   0.008   0.036  -0.004  -0.006   0.003  -0.021   0.000
  0.002  -0.000  -0.020   0.008  -0.026  -0.015  -0.010   0.004   0.021   0.036   1.547  -0.100   0.048  -0.123  -0.236  -0.007
  0.002   0.002  -0.005   0.004  -0.003   0.002   0.001   0.001  -0.005  -0.004  -0.100   0.013  -0.009   0.016   0.031   0.001
 -0.046  -0.025  -0.011  -0.001  -0.021  -0.021  -0.011  -0.005   0.002  -0.006   0.048  -0.009   0.078  -0.009  -0.013  -0.005
  0.005   0.001  -0.027  -0.053  -0.013   0.000   0.007  -0.017  -0.024   0.003  -0.123   0.016  -0.009   0.116  -0.001   0.001
  0.007   0.005   0.025  -0.039  -0.070   0.006  -0.000   0.014  -0.009  -0.021  -0.236   0.031  -0.013  -0.001   0.114   0.001
  0.027   0.014   0.002  -0.000   0.003   0.001   0.001   0.000  -0.000   0.000  -0.007   0.001  -0.005   0.001   0.001   0.001
 -0.000  -0.004   0.018   0.027  -0.001  -0.000  -0.000   0.001   0.002   0.000   0.016  -0.002   0.001  -0.007  -0.002  -0.000
 -0.004   0.000  -0.016   0.012   0.027  -0.001  -0.000  -0.001   0.001   0.002   0.030  -0.003   0.001  -0.002  -0.010  -0.000
 total augmentation occupancy for first ion, spin component:           2
  0.002  -0.001   0.002   0.000  -0.001   0.004   0.001  -0.000  -0.000   0.000  -0.008  -0.002   0.004   0.004  -0.006   0.001
 -0.001   0.004  -0.002  -0.002   0.002   0.001   0.003   0.001   0.000  -0.000  -0.005  -0.001   0.003  -0.011   0.004   0.000
  0.002  -0.002   0.004  -0.001   0.000  -0.000   0.001   0.003   0.001  -0.000  -0.017  -0.004   0.003   0.004  -0.008   0.000
  0.000  -0.002  -0.001   0.003  -0.001  -0.000   0.000   0.001   0.004   0.000   0.019   0.005  -0.003   0.008   0.004   0.000
 -0.001   0.002   0.000  -0.001   0.002   0.000  -0.000  -0.000   0.001   0.004  -0.005  -0.001   0.003  -0.004   0.003   0.001
  0.004   0.001  -0.000  -0.000   0.000  -0.000  -0.000   0.000   0.000  -0.000   0.001   0.000   0.000  -0.001   0.001   0.000
  0.001   0.003   0.001   0.000  -0.000  -0.000   0.000  -0.000  -0.000   0.000   0.001   0.000  -0.000   0.002  -0.001   0.000
 -0.000   0.001   0.003   0.001  -0.000   0.000  -0.000   0.000  -0.000   0.000   0.007   0.000  -0.001  -0.001   0.002  -0.000
 -0.000   0.000   0.001   0.004   0.001   0.000  -0.000  -0.000   0.000  -0.000  -0.007  -0.000   0.001  -0.001  -0.001   0.000
  0.000  -0.000  -0.000   0.000   0.004  -0.000   0.000   0.000  -0.000  -0.000   0.002   0.000  -0.000   0.001   0.000  -0.000
 -0.008  -0.005  -0.017   0.019  -0.005   0.001   0.001   0.007  -0.007   0.002   0.155   0.010  -0.023   0.020   0.034  -0.000
 -0.002  -0.001  -0.004   0.005  -0.001   0.000   0.000   0.000  -0.000   0.000   0.010   0.001  -0.002   0.001   0.002  -0.000
  0.004   0.003   0.003  -0.003   0.003   0.000  -0.000  -0.001   0.001  -0.000  -0.023  -0.002   0.002  -0.002  -0.003   0.000
  0.004  -0.011   0.004   0.008  -0.004  -0.001   0.002  -0.001  -0.001   0.001   0.020   0.001  -0.002   0.021  -0.008  -0.000
 -0.006   0.004  -0.008   0.004   0.003   0.001  -0.001   0.002  -0.001   0.000   0.034   0.002  -0.003  -0.008   0.009  -0.000
  0.001   0.000   0.000   0.000   0.001   0.000   0.000  -0.000   0.000  -0.000  -0.000  -0.000   0.000  -0.000  -0.000   0.000
  0.000  -0.001   0.000   0.001  -0.000   0.000  -0.000   0.000   0.000  -0.000   0.000   0.000  -0.000   0.000   0.000  -0.000
 -0.001   0.000  -0.001   0.001   0.001   0.000   0.000   0.000  -0.000   0.000   0.001   0.000  -0.000   0.000   0.000   0.000


------------------------ aborting loop because EDIFF is reached ----------------------------------------


 


 total charge     
 
# of ion       s       p       d       tot
------------------------------------------
    1        0.434   0.161   9.282   9.877
    2        0.435   0.153   9.280   9.869
    3        0.407   0.147   9.307   9.860
    4        0.411   0.150   9.305   9.865
    5        0.516   0.551   9.202  10.268
    6        0.434   0.157   9.281   9.872
    7        0.434   0.151   9.283   9.868
    8        0.434   0.150   9.282   9.866
    9        0.431   0.155   9.283   9.870
   10        0.408   0.147   9.307   9.862
--------------------------------------------------
tot          4.344   1.923  92.811  99.078
 


 magnetization (x)
 
# of ion       s       p       d       tot
------------------------------------------
    1        0.066   0.021  -0.000   0.087
    2        0.073   0.020   0.000   0.093
    3       -0.006   0.022   0.002   0.019
    4       -0.006   0.023   0.002   0.019
    5       -0.002  -0.009   0.089   0.078
    6        0.071   0.021   0.000   0.091
    7        0.071   0.019   0.000   0.091
    8        0.074   0.020   0.000   0.094
    9        0.066   0.021   0.000   0.087
   10       -0.005   0.022   0.002   0.019
--------------------------------------------------
tot          0.401   0.181   0.096   0.678
 
    CHARGE:  cpu time    0.3320: real time    0.3321
    FORLOC:  cpu time    0.0200: real time    0.0221
    FORNL :  cpu time    0.7920: real time    0.7910
    STRESS:  cpu time    1.9440: real time    1.9471
    FORCOR:  cpu time    0.8920: real time    0.8927
    FORHAR:  cpu time    0.1280: real time    0.1244
    MIXING:  cpu time    0.1000: real time    0.1038
    OFIELD:  cpu time    0.0000: real time    0.0001

  FORCE on cell =-STRESS in cart. coord.  units (eV):
  Direction    XX          YY          ZZ          XY          YZ          ZX
  --------------------------------------------------------------------------------------
  Alpha Z     2.70862     2.70862     2.70862
  Ewald    6366.03514  6170.39961  5781.26367   562.78634   292.24460   340.37262
  Hartree 10563.20719 10375.12947 10010.71604   528.39021   273.42435   316.96956
  E(xc)    -641.83335  -641.79170  -641.81528     0.00003    -0.00276    -0.00860
  Local  -17883.87914-17500.08975-16745.87161 -1091.96476  -565.89152  -657.34710
  n-local  -249.24221  -249.11136  -248.88047    -0.25616    -0.23763    -0.20812
  augment   935.64937   935.45616   935.26766     0.31245     0.11232     0.03514
  Kinetic   904.96977   904.67763   904.31186     0.61827     0.21746     0.20622
  Fock        0.00000     0.00000     0.00000     0.00000     0.00000     0.00000
  -------------------------------------------------------------------------------------
  Total      -2.38461    -2.62131    -2.29952    -0.11362    -0.13317     0.01972
  in kB      -0.14150    -0.15555    -0.13645    -0.00674    -0.00790     0.00117
  external pressure =       -0.14 kB  Pullay stress =        0.00 kB


 VOLUME and BASIS-vectors are now :
 -----------------------------------------------------------------------------
  energy-cutoff  :      295.45
  volume of cell :    27000.00
      direct lattice vectors                 reciprocal lattice vectors
    30.000000000  0.000000000  0.000000000     0.033333333  0.000000000  0.000000000
     0.000000000 30.000000000  0.000000000     0.000000000  0.033333333  0.000000000
     0.000000000  0.000000000 30.000000000     0.000000000  0.000000000  0.033333333

  length of vectors
    30.000000000 30.000000000 30.000000000     0.033333333  0.033333333  0.033333333


 FORCES acting on ions
    electron-ion (+dipol)            ewald-force                    non-local-force                 convergence-correction
 -----------------------------------------------------------------------------------------------
   -.114E+04 0.159E+03 -.596E+03   0.113E+04 -.158E+03 0.592E+03   0.709E+01 -.988E+00 0.362E+01   -.741E-03 0.166E-02 -.299E-03
   0.136E+03 0.128E+04 0.540E+02   -.136E+03 -.127E+04 -.541E+02   0.101E+00 -.781E+01 0.675E-01   -.173E-02 -.135E-03 -.949E-03
   -.858E+03 0.518E+03 0.805E+03   0.851E+03 -.513E+03 -.799E+03   0.647E+01 -.437E+01 -.644E+01   -.630E-03 -.301E-03 0.663E-03
   0.147E+03 0.500E+03 -.118E+04   -.146E+03 -.496E+03 0.117E+04   -.154E+01 -.407E+01 0.905E+01   0.256E-04 -.108E-03 -.886E-03
   -.133E+01 -.114E+02 0.153E+02   0.130E+01 0.114E+02 -.154E+02   0.669E-02 -.167E-01 0.462E-01   0.522E-03 0.615E-03 -.784E-03
   0.125E+04 0.194E+03 -.269E+03   -.124E+04 -.193E+03 0.267E+03   -.762E+01 -.856E+00 0.196E+01   0.675E-03 -.150E-02 -.131E-02
   -.107E+02 -.938E+03 -.887E+03   0.112E+02 0.933E+03 0.881E+03   -.393E+00 0.540E+01 0.582E+01   0.149E-02 0.857E-03 -.110E-02
   -.747E+03 -.913E+03 0.516E+03   0.743E+03 0.907E+03 -.512E+03   0.401E+01 0.570E+01 -.364E+01   0.100E-02 0.567E-03 0.111E-02
   0.522E+03 0.218E+03 0.116E+04   -.519E+03 -.217E+03 -.115E+04   -.317E+01 -.126E+01 -.746E+01   -.213E-03 -.132E-02 0.122E-02
   0.703E+03 -.101E+04 0.379E+03   -.698E+03 0.999E+03 -.376E+03   -.489E+01 0.852E+01 -.284E+01   0.195E-03 -.273E-03 0.995E-03
 -----------------------------------------------------------------------------------------------
   0.180E-01 -.201E+00 -.729E-01   0.114E-12 -.455E-12 0.568E-13   0.668E-01 0.257E+00 0.173E+00   0.597E-03 0.600E-04 -.134E-02
 
 
 POSITION                                       TOTAL-FORCE (eV/Angst)
 -----------------------------------------------------------------------------------
      9.81161      7.71523      8.82365         0.053617     -0.058247      0.045159
      7.30804      5.50636      7.56658         0.028722      0.060990      0.010212
      9.29412      6.87180      6.37037         0.009029     -0.010852     -0.015049
      7.52804      6.90014      9.81891        -0.008895     -0.033608      0.061981
      7.77277      7.77935      7.76150        -0.027735      0.013334     -0.089884
      5.53419      7.26480      8.06282        -0.032415     -0.022174      0.035863
      8.01650      9.47956      9.30868         0.057824      0.009031     -0.046362
      9.23969      9.43587      7.05821        -0.034486      0.022663      0.060834
      6.67542      7.21172      5.80090         0.048114     -0.006540     -0.045411
      6.49849      9.51405      7.10726        -0.093773      0.025404     -0.017343
 -----------------------------------------------------------------------------------
    total drift:                                0.085413      0.055503      0.099099


--------------------------------------------------------------------------------------------------------



  FREE ENERGIE OF THE ION-ELECTRON SYSTEM (eV)
  ---------------------------------------------------
  free  energy   TOTEN  =       -22.54256116 eV

  energy  without entropy=      -22.54256116  energy(sigma->0) =      -22.54256116
 
 d Force = 0.1107836E-01[ 0.940E-03, 0.212E-01]  d Energy = 0.1163513E-01-0.557E-03
 d Force = 0.3240328E+02[ 0.323E+02, 0.325E+02]  d Ewald  = 0.3239341E+02 0.987E-02


--------------------------------------------------------------------------------------------------------


    POTLOK:  cpu time    0.9600: real time    0.9567


--------------------------------------------------------------------------------------------------------




--------------------------------------------------------------------------------------------------------


  
 reached required accuracy - stopping structural energy minimisation
     LOOP+:  cpu time  113.0080: real time  113.3054
    4ORBIT:  cpu time    0.0000: real time    0.0000
 


 total charge     
 
# of ion       s       p       d       tot
------------------------------------------
    1        0.434   0.161   9.282   9.877
    2        0.435   0.153   9.280   9.869
    3        0.407   0.147   9.307   9.860
    4        0.411   0.150   9.305   9.865
    5        0.516   0.551   9.202  10.268
    6        0.434   0.157   9.281   9.872
    7        0.434   0.151   9.283   9.868
    8        0.434   0.150   9.282   9.866
    9        0.431   0.155   9.283   9.870
   10        0.408   0.147   9.307   9.862
--------------------------------------------------
tot          4.344   1.923  92.811  99.078
 


 magnetization (x)
 
# of ion       s       p       d       tot
------------------------------------------
    1        0.066   0.021  -0.000   0.087
    2        0.073   0.020   0.000   0.093
    3       -0.006   0.022   0.002   0.019
    4       -0.006   0.023   0.002   0.019
    5       -0.002  -0.009   0.089   0.078
    6        0.071   0.021   0.000   0.091
    7        0.071   0.019   0.000   0.091
    8        0.074   0.020   0.000   0.094
    9        0.066   0.021   0.000   0.087
   10       -0.005   0.022   0.002   0.019
--------------------------------------------------
tot          0.401   0.181   0.096   0.678
 

 total amount of memory used by VASP MPI-rank0   103546. kBytes
=======================================================================

   base      :      30000. kBytes
   nonl-proj :       4299. kBytes
   fftplans  :      16829. kBytes
   grid      :      42892. kBytes
   one-center:         15. kBytes
   wavefun   :       9511. kBytes
 
  
  
 General timing and accounting informations for this job:
 ========================================================
  
                  Total CPU time used (sec):     1035.152
                            User time (sec):     1031.600
                          System time (sec):        3.552
                         Elapsed time (sec):     1037.527
  
                   Maximum memory used (kb):       43432.
                   Average memory used (kb):           0.
  
                          Minor page faults:        17591
                          Major page faults:           28
                 Voluntary context switches:         1154
