 vasp.5.4.1 05Feb16 (build Apr 11 2020 03:28:46) gamma-only                     
  
 executed on           IFC91_ompi date 2022.06.03  13:03:32
 running on   24 total cores
 distrk:  each k-point on   24 cores,    1 groups
 distr:  one band on NCORES_PER_BAND=   6 cores,    4 groups


--------------------------------------------------------------------------------------------------------


 INCAR:
 POTCAR:    PAW_PBE Cu 22Jun2005                  
 POTCAR:    PAW_PBE Cu 22Jun2005                  
   VRHFIN =Cu: d10 p1                                                           
   LEXCH  = PE                                                                  
   EATOM  =  1390.9808 eV,  102.2342 Ry                                         
                                                                                
   TITEL  = PAW_PBE Cu 22Jun2005                                                
   LULTRA =        F    use ultrasoft PP ?                                      
   IUNSCR =        1    unscreen: 0-lin 1-nonlin 2-no                           
   RPACOR =    2.000    partial core radius                                     
   POMASS =   63.546; ZVAL   =   11.000    mass and valenz                      
   RCORE  =    2.300    outmost cutoff radius                                   
   RWIGS  =    2.200; RWIGS  =    1.164    wigner-seitz radius (au A)           
   ENMAX  =  295.446; ENMIN  =  221.585 eV                                      
   ICORE  =        3    local potential                                         
   LCOR   =        T    correct aug charges                                     
   LPAW   =        T    paw PP                                                  
   EAUG   =  586.980                                                            
   DEXC   =    0.000                                                            
   RMAX   =    2.344    core radius for proj-oper                               
   RAUG   =    1.300    factor for augmentation sphere                          
   RDEP   =    2.302    radius for radial grids                                 
   RDEPT  =    1.771    core radius for aug-charge                              
                                                                                
   Atomic configuration                                                         
    9 entries                                                                   
     n  l   j            E        occ.                                          
     1  0  0.50     -8850.2468   2.0000                                         
     2  0  0.50     -1062.3498   2.0000                                         
     2  1  1.50      -916.8226   6.0000                                         
     3  0  0.50      -114.6929   2.0000                                         
     3  1  1.50       -72.1325   6.0000                                         
     3  2  2.50        -5.0394  10.0000                                         
     4  0  0.50        -4.6097   1.0000                                         
     4  1  0.50        -4.0817   0.0000                                         
     4  3  2.50        -1.3606   0.0000                                         
   Description                                                                  
     l       E           TYP  RCUT    TYP  RCUT                                 
     2     -5.0393973     23  2.200                                             
     2     10.8846608     23  2.200                                             
     0     -4.6097109     23  2.200                                             
     0      8.2520465     23  2.200                                             
     1     -2.7211652     23  2.200                                             
     1     21.7055443     23  2.200                                             
     3      2.7211652     23  2.300                                             
  local pseudopotential read in
  partial core-charges read in
  partial kinetic energy density read in
  atomic valenz-charges read in
  non local Contribution for L=           2  read in
    real space projection operators read in
  non local Contribution for L=           2  read in
    real space projection operators read in
  non local Contribution for L=           0  read in
    real space projection operators read in
  non local Contribution for L=           0  read in
    real space projection operators read in
  non local Contribution for L=           1  read in
    real space projection operators read in
  non local Contribution for L=           1  read in
    real space projection operators read in
    PAW grid and wavefunctions read in
 
   number of l-projection  operators is LMAX  =           6
   number of lm-projection operators is LMMAX =          18
 
  PAW_PBE Cu 22Jun2005                  :
 energy of atom  1       EATOM=-1390.9808
 kinetic energy error for atom=    0.0452 (will be added to EATOM!!)
 
 
 POSCAR: unknown system                          
  positions in direct lattice
  velocities in cartesian coordinates
 exchange correlation table for  LEXCH =        8
   RHO(1)=    0.500       N(1)  =     2000
   RHO(2)=  100.500       N(2)  =     4000
 


--------------------------------------------------------------------------------------------------------


 ion  position               nearest neighbor table
   1  0.608  0.456  0.505-  10 2.38   8 2.40   3 2.41   7 2.47  11 2.57
   2  0.445  0.537  0.508-  11 2.40   5 2.42   9 2.46   4 2.47  10 2.47   6 2.52   8 2.55
   3  0.498  0.400  0.474-   5 2.37   1 2.41  11 2.42   6 2.43   8 2.44
   4  0.524  0.625  0.455-  10 2.35   8 2.37   2 2.47   7 2.48
   5  0.414  0.464  0.408-   3 2.37   2 2.42   6 2.44   8 2.46
   6  0.382  0.420  0.525-   9 2.35   3 2.43   5 2.44   2 2.52  11 2.64
   7  0.642  0.570  0.450-   8 2.43   1 2.47  10 2.48   4 2.48
   8  0.536  0.507  0.414-   4 2.37   1 2.40   7 2.43   3 2.44   5 2.46   2 2.55
   9  0.385  0.502  0.619-   6 2.35  11 2.41   2 2.46
  10  0.564  0.563  0.554-   4 2.35   1 2.38  11 2.43   2 2.47   7 2.48
  11  0.501  0.457  0.589-   2 2.40   9 2.41   3 2.42  10 2.43   1 2.57   6 2.64
 
  LATTYP: Found a simple cubic cell.
 ALAT       =    18.9274020000
  
  Lattice vectors:
  
 A1 = (  18.9274020000,   0.0000000000,   0.0000000000)
 A2 = (   0.0000000000,  18.9274020000,   0.0000000000)
 A3 = (   0.0000000000,   0.0000000000,  18.9274020000)


Analysis of symmetry for initial positions (statically):
=====================================================================
 Subroutine PRICEL returns:
 Original cell was already a primitive cell.
 

 Routine SETGRP: Setting up the symmetry group for a 
 simple cubic supercell.


 Subroutine GETGRP returns: Found  1 space group operations
 (whereof  1 operations were pure point group operations)
 out of a pool of 48 trial point group operations.


The static configuration has the point symmetry C_1 .


Analysis of symmetry for dynamics (positions and initial velocities):
=====================================================================
 Subroutine PRICEL returns:
 Original cell was already a primitive cell.
 

 Routine SETGRP: Setting up the symmetry group for a 
 simple cubic supercell.


 Subroutine GETGRP returns: Found  1 space group operations
 (whereof  1 operations were pure point group operations)
 out of a pool of 48 trial point group operations.


The dynamic configuration has the point symmetry C_1 .


Analysis of structural, dynamic, and magnetic symmetry:
=====================================================================
 Subroutine PRICEL returns:
 Original cell was already a primitive cell.
 

 Routine SETGRP: Setting up the symmetry group for a 
 simple cubic supercell.


 Subroutine GETGRP returns: Found  1 space group operations
 (whereof  1 operations were pure point group operations)
 out of a pool of 48 trial point group operations.


The magnetic configuration has the point symmetry C_1 .


 Subroutine INISYM returns: Found  1 space group operations
 (whereof  1 operations are pure point group operations),
 and found     1 'primitive' translations

 
 
 KPOINTS: Gamma-point only                        
  k-points in reciprocal lattice
Space group operators:
 irot       det(A)        alpha          n_x          n_y          n_z        tau_x        tau_y        tau_z
    1     1.000000     0.000001     1.000000     0.000000     0.000000     0.000000     0.000000     0.000000


--------------------------------------------------------------------------------------------------------




 Dimension of arrays:
   k-points           NKPTS =      1   k-points in BZ     NKDIM =      1   number of bands    NBANDS=     92
   number of dos      NEDOS =    301   number of ions     NIONS =     11
   non local maximal  LDIM  =      6   non local SUM 2l+1 LMDIM =     18
   total plane-waves  NPLWV = 512000
   max r-space proj   IRMAX =      1   max aug-charges    IRDMAX=   2386
   dimension x,y,z NGX =    80 NGY =   80 NGZ =   80
   dimension x,y,z NGXF=   160 NGYF=  160 NGZF=  160
   support grid    NGXF=   160 NGYF=  160 NGZF=  160
   ions per type =              11
 NGX,Y,Z   is equivalent  to a cutoff of   7.03,  7.03,  7.03 a.u.
 NGXF,Y,Z  is equivalent  to a cutoff of  14.05, 14.05, 14.05 a.u.


 I would recommend the setting:
   dimension x,y,z NGX =    80 NGY =   80 NGZ =   80
 SYSTEM =  unknown system                          
 POSCAR =  unknown system                          

 Startparameter for this run:
   NWRITE =      2    write-flag & timer
   PREC   = normal    normal or accurate (medium, high low for compatibility)
   ISTART =      0    job   : 0-new  1-cont  2-samecut
   ICHARG =      2    charge: 1-file 2-atom 10-const
   ISPIN  =      2    spin polarized calculation?
   LNONCOLLINEAR =      F non collinear calculations
   LSORBIT =      F    spin-orbit coupling
   INIWAV =      1    electr: 0-lowe 1-rand  2-diag
   LASPH  =      F    aspherical Exc in radial PAW
   METAGGA=      F    non-selfconsistent MetaGGA calc.

 Electronic Relaxation 1
   ENCUT  =  295.4 eV  21.71 Ry    4.66 a.u.  26.53 26.53 26.53*2*pi/ulx,y,z
   ENINI  =  295.4     initial cutoff
   ENAUG  =  587.0 eV  augmentation charge cutoff
   NELM   =     60;   NELMIN=  2; NELMDL=  0     # of ELM steps 
   EDIFF  = 0.1E-05   stopping-criterion for ELM
   LREAL  =      F    real-space projection
   NLSPLINE    = F    spline interpolate recip. space projectors
   LCOMPAT=      F    compatible to vasp.4.4
   GGA_COMPAT  = T    GGA compatible to vasp.4.4-vasp.4.6
   LMAXPAW     = -100 max onsite density
   LMAXMIX     =    2 max onsite mixed and CHGCAR
   VOSKOWN=      0    Vosko Wilk Nusair interpolation
   ROPT   =    0.00000
 Ionic relaxation
   EDIFFG = -.3E-01   stopping-criterion for IOM
   NSW    =   1000    number of steps for IOM
   NBLOCK =      1;   KBLOCK =   1000    inner block; outer block 
   IBRION =      2    ionic relax: 0-MD 1-quasi-New 2-CG
   NFREE  =      1    steps in history (QN), initial steepest desc. (CG)
   ISIF   =      2    stress and relaxation
   IWAVPR =     11    prediction:  0-non 1-charg 2-wave 3-comb
   ISYM   =      2    0-nonsym 1-usesym 2-fastsym
   LCORR  =      T    Harris-Foulkes like correction to forces

   POTIM  = 0.5000    time-step for ionic-motion
   TEIN   =    0.0    initial temperature
   TEBEG  =    0.0;   TEEND  =   0.0 temperature during run
   SMASS  =  -3.00    Nose mass-parameter (am)
   estimated Nose-frequenzy (Omega)   =  0.10E-29 period in steps =****** mass=  -0.819E-26a.u.
   SCALEE = 1.0000    scale energy and forces
   NPACO  =    256;   APACO  = 16.0  distance and # of slots for P.C.
   PSTRESS=    0.0 pullay stress

  Mass of Ions in am
   POMASS =  63.55
  Ionic Valenz
   ZVAL   =  11.00
  Atomic Wigner-Seitz radii
   RWIGS  =  -1.00
  virtual crystal weights 
   VCA    =   1.00
   NELECT =     121.0000    total number of electrons
   NUPDOWN=      -1.0000    fix difference up-down

 DOS related values:
   EMIN   =  10.00;   EMAX   =-10.00  energy-range for DOS
   EFERMI =   0.00
   ISMEAR =     0;   SIGMA  =   0.00  broadening in eV -4-tet -1-fermi 0-gaus

 Electronic relaxation 2 (details)
   IALGO  =     38    algorithm
   LDIAG  =      T    sub-space diagonalisation (order eigenvalues)
   LSUBROT=      F    optimize rotation matrix (better conditioning)
   TURBO    =      0    0=normal 1=particle mesh
   IRESTART =      0    0=no restart 2=restart with 2 vectors
   NREBOOT  =      0    no. of reboots
   NMIN     =      0    reboot dimension
   EREF     =   0.00    reference energy to select bands
   IMIX   =      4    mixing-type and parameters
     AMIX     =   0.40;   BMIX     =  1.00
     AMIX_MAG =   1.60;   BMIX_MAG =  1.00
     AMIN     =   0.10
     WC   =   100.;   INIMIX=   1;  MIXPRE=   1;  MAXMIX= -45

 Intra band minimization:
   WEIMIN = 0.0010     energy-eigenvalue tresh-hold
   EBREAK =  0.27E-08  absolut break condition
   DEPER  =   0.30     relativ break condition  

   TIME   =   0.40     timestep for ELM

  volume/ion in A,a.u.               =     616.43      4159.84
  Fermi-wavevector in a.u.,A,eV,Ry     =   0.427805  0.808434  2.490096  0.183017
  Thomas-Fermi vector in A             =   1.394687
 
 Write flags
   LWAVE  =      F    write WAVECAR
   LCHARG =      F    write CHGCAR
   LVTOT  =      F    write LOCPOT, total local potential
   LVHAR  =      F    write LOCPOT, Hartree potential only
   LELF   =      F    write electronic localiz. function (ELF)
   LORBIT =     11    0 simple, 1 ext, 2 COOP (PROOUT)


 Dipole corrections
   LMONO  =      F    monopole corrections only (constant potential shift)
   LDIPOL =      F    correct potential (dipole corrections)
   IDIPOL =      0    1-x, 2-y, 3-z, 4-all directions 
   EPSILON=  1.0000000 bulk dielectric constant

 Exchange correlation treatment:
   GGA     =    PE    GGA type
   LEXCH   =     8    internal setting for exchange type
   VOSKOWN=      0    Vosko Wilk Nusair interpolation
   LHFCALC =     F    Hartree Fock is set to
   LHFONE  =     F    Hartree Fock one center treatment
   AEXX    =    0.0000 exact exchange contribution

 Linear response parameters
   LEPSILON=     F    determine dielectric tensor
   LRPA    =     F    only Hartree local field effects (RPA)
   LNABLA  =     F    use nabla operator in PAW spheres
   LVEL    =     F    velocity operator in full k-point grid
   LINTERFAST=   F  fast interpolation
   KINTER  =     0    interpolate to denser k-point grid
   CSHIFT  =0.1000    complex shift for real part using Kramers Kronig
   OMEGAMAX=  -1.0    maximum frequency
   DEG_THRESHOLD= 0.2000000E-02 threshold for treating states as degnerate
   RTIME   =    0.100 relaxation time in fs

 Orbital magnetization related:
   ORBITALMAG=     F  switch on orbital magnetization
   LCHIMAG   =     F  perturbation theory with respect to B field
   DQ        =  0.001000  dq finite difference perturbation B field



--------------------------------------------------------------------------------------------------------


 conjugate gradient relaxation of ions
 charge density and potential will be updated during run
 spin polarized calculation
 Variant of blocked Davidson
 Davidson routine will perform the subspace rotation
 perform sub-space diagonalisation
    after iterative eigenvector-optimisation
 modified Broyden-mixing scheme, WC =      100.0
 initial mixing is a Kerker type mixing with AMIX =  0.4000 and BMIX =      1.0000
 Hartree-type preconditioning will be used
 using additional bands           31
 reciprocal scheme for non local part
 use partial core corrections
 calculate Harris-corrections to forces 
   (improved forces if not selfconsistent)
 use gradient corrections 
 use of overlap-Matrix (Vanderbilt PP)
 Gauss-broadening in eV      SIGMA  =   0.00


--------------------------------------------------------------------------------------------------------


  energy-cutoff  :      295.45
  volume of cell :     6780.68
      direct lattice vectors                 reciprocal lattice vectors
    18.927402000  0.000000000  0.000000000     0.052833453  0.000000000  0.000000000
     0.000000000 18.927402000  0.000000000     0.000000000  0.052833453  0.000000000
     0.000000000  0.000000000 18.927402000     0.000000000  0.000000000  0.052833453

  length of vectors
    18.927402000 18.927402000 18.927402000     0.052833453  0.052833453  0.052833453


 
 k-points in units of 2pi/SCALE and weight: Gamma-point only                        
   0.00000000  0.00000000  0.00000000       1.000
 
 k-points in reciprocal lattice and weights: Gamma-point only                        
   0.00000000  0.00000000  0.00000000       1.000
 
 position of ions in fractional coordinates (direct lattice) 
   0.60819360  0.45642620  0.50503316
   0.44461198  0.53651397  0.50797881
   0.49836083  0.39967744  0.47424211
   0.52387756  0.62523148  0.45487592
   0.41385349  0.46358846  0.40780151
   0.38228017  0.42024006  0.52487344
   0.64244439  0.56960091  0.44975521
   0.53617285  0.50735976  0.41382539
   0.38548750  0.50178225  0.61867500
   0.56383108  0.56301733  0.55435911
   0.50088654  0.45656213  0.58858033
 
 position of ions in cartesian coordinates  (Angst):
  11.51152476  8.63896217  9.55896564
   8.41534968 10.15481559  9.61471914
   9.43267577  7.56485558  8.97617106
   9.91564118 11.83400757  8.60961940
   7.83317137  8.77452514  7.71862312
   7.23557045  7.95405255  9.93449060
  12.15980323 10.78106540  8.51269766
  10.14835907  9.60300214  7.83263951
   7.29627688  9.49743436 11.70991043
  10.67185751 10.65645534 10.49257773
   9.48048090  8.64153497 11.14029652
 


--------------------------------------------------------------------------------------------------------


 use parallel FFT for wavefunctions z direction half grid
 k-point  1 :   0.0000 0.0000 0.0000  plane waves:   39103

 maximum and minimum number of plane-waves per node :      6521     6512

 maximum number of plane-waves:     39103
 maximum index in each direction: 
   IXMAX=   26   IYMAX=   26   IZMAX=   26
   IXMIN=  -26   IYMIN=  -26   IZMIN=    0

 WARNING: aliasing errors must be expected set NGX to 106 to avoid them
 WARNING: aliasing errors must be expected set NGY to 106 to avoid them
 WARNING: aliasing errors must be expected set NGZ to 106 to avoid them
 aliasing errors are usually negligible using standard VASP settings
 and one can safely disregard these warnings

 parallel 3D FFT for wavefunctions:
    minimum data exchange during FFTs selected (reduces bandwidth)
 parallel 3D FFT for charge:
    minimum data exchange during FFTs selected (reduces bandwidth)


 total amount of memory used by VASP on root node    65134. kBytes
========================================================================

   base      :      30000. kBytes
   nonl-proj :       2087. kBytes
   fftplans  :       7971. kBytes
   grid      :      20231. kBytes
   one-center:         31. kBytes
   wavefun   :       4814. kBytes
 
     INWAV:  cpu time    0.0000: real time    0.0000
 Broyden mixing: mesh for mixing (old mesh)
   NGX = 53   NGY = 53   NGZ = 53
  (NGX  =160   NGY  =160   NGZ  =160)
  gives a total of 148877 points

 initial charge density was supplied:
 charge density of overlapping atoms calculated
 number of electron     121.0000000 magnetization      33.0000000
 keeping initial charge density in first step


--------------------------------------------------------------------------------------------------------


 Maximum index for augmentation-charges          197 (set IRDMAX)


--------------------------------------------------------------------------------------------------------


 First call to EWALD:  gamma=   0.094
 Maximum number of real-space cells 3x 3x 3
 Maximum number of reciprocal cells 3x 3x 3

 FEWALD executed in parallel
    FEWALD:  cpu time    0.0018: real time    0.0018


----------------------------------------- Iteration    1(   1)  ---------------------------------------


    POTLOK:  cpu time    0.2963: real time    0.2965
    SETDIJ:  cpu time    0.0078: real time    0.0078
     EDDAV:  cpu time    0.9904: real time    0.9918
       DOS:  cpu time    0.0001: real time    0.0001
    --------------------------------------------
      LOOP:  cpu time    1.2974: real time    1.3165

 eigenvalue-minimisations  :   368
 total energy-change (2. order) : 0.7787825E+03  (-0.2183476E+04)
 number of electron     121.0000000 magnetization      33.0000000
 augmentation part      121.0000000 magnetization      33.0000000

 Free energy of the ion-electron system (eV)
  ---------------------------------------------------
  alpha Z        PSCENC =        13.05042259
  Ewald energy   TEWEN  =     15756.09699548
  -Hartree energ DENC   =    -29704.71990234
  -exchange      EXHF   =         0.00000000
  -V(xc)+E(xc)   XCENC  =       504.08795398
  PAW double counting   =     13499.38897783   -14661.85464542
  entropy T*S    EENTRO =        -0.00000000
  eigenvalues    EBANDS =        72.44122436
  atomic energy  EATOM  =     15300.29143124
  Solvation  Ediel_sol  =         0.00000000
  ---------------------------------------------------
  free energy    TOTEN  =       778.78245771 eV

  energy without entropy =      778.78245771  energy(sigma->0) =      778.78245771


--------------------------------------------------------------------------------------------------------




----------------------------------------- Iteration    1(   2)  ---------------------------------------


     EDDAV:  cpu time    1.0379: real time    1.0390
       DOS:  cpu time    0.0001: real time    0.0001
    --------------------------------------------
      LOOP:  cpu time    1.0402: real time    1.0444

 eigenvalue-minimisations  :   392
 total energy-change (2. order) :-0.6771993E+03  (-0.5797063E+03)
 number of electron     121.0000000 magnetization      33.0000000
 augmentation part      121.0000000 magnetization      33.0000000

 Free energy of the ion-electron system (eV)
  ---------------------------------------------------
  alpha Z        PSCENC =        13.05042259
  Ewald energy   TEWEN  =     15756.09699548
  -Hartree energ DENC   =    -29704.71990234
  -exchange      EXHF   =         0.00000000
  -V(xc)+E(xc)   XCENC  =       504.08795398
  PAW double counting   =     13499.38897783   -14661.85464542
  entropy T*S    EENTRO =         0.00000000
  eigenvalues    EBANDS =      -604.75807633
  atomic energy  EATOM  =     15300.29143124
  Solvation  Ediel_sol  =         0.00000000
  ---------------------------------------------------
  free energy    TOTEN  =       101.58315702 eV

  energy without entropy =      101.58315702  energy(sigma->0) =      101.58315702


--------------------------------------------------------------------------------------------------------




----------------------------------------- Iteration    1(   3)  ---------------------------------------


     EDDAV:  cpu time    1.1685: real time    1.1708
       DOS:  cpu time    0.0001: real time    0.0001
    --------------------------------------------
      LOOP:  cpu time    1.1707: real time    1.1760

 eigenvalue-minimisations  :   464
 total energy-change (2. order) :-0.1072192E+03  (-0.1007350E+03)
 number of electron     121.0000000 magnetization      33.0000000
 augmentation part      121.0000000 magnetization      33.0000000

 Free energy of the ion-electron system (eV)
  ---------------------------------------------------
  alpha Z        PSCENC =        13.05042259
  Ewald energy   TEWEN  =     15756.09699548
  -Hartree energ DENC   =    -29704.71990234
  -exchange      EXHF   =         0.00000000
  -V(xc)+E(xc)   XCENC  =       504.08795398
  PAW double counting   =     13499.38897783   -14661.85464542
  entropy T*S    EENTRO =         0.00000000
  eigenvalues    EBANDS =      -711.97725704
  atomic energy  EATOM  =     15300.29143124
  Solvation  Ediel_sol  =         0.00000000
  ---------------------------------------------------
  free energy    TOTEN  =        -5.63602369 eV

  energy without entropy =       -5.63602369  energy(sigma->0) =       -5.63602369


--------------------------------------------------------------------------------------------------------




----------------------------------------- Iteration    1(   4)  ---------------------------------------


     EDDAV:  cpu time    1.1683: real time    1.1700
       DOS:  cpu time    0.0001: real time    0.0001
    --------------------------------------------
      LOOP:  cpu time    1.1709: real time    1.1756

 eigenvalue-minimisations  :   464
 total energy-change (2. order) :-0.1001851E+02  (-0.8710448E+01)
 number of electron     121.0000000 magnetization      33.0000000
 augmentation part      121.0000000 magnetization      33.0000000

 Free energy of the ion-electron system (eV)
  ---------------------------------------------------
  alpha Z        PSCENC =        13.05042259
  Ewald energy   TEWEN  =     15756.09699548
  -Hartree energ DENC   =    -29704.71990234
  -exchange      EXHF   =         0.00000000
  -V(xc)+E(xc)   XCENC  =       504.08795398
  PAW double counting   =     13499.38897783   -14661.85464542
  entropy T*S    EENTRO =         0.00000000
  eigenvalues    EBANDS =      -721.99576358
  atomic energy  EATOM  =     15300.29143124
  Solvation  Ediel_sol  =         0.00000000
  ---------------------------------------------------
  free energy    TOTEN  =       -15.65453022 eV

  energy without entropy =      -15.65453022  energy(sigma->0) =      -15.65453022


--------------------------------------------------------------------------------------------------------




----------------------------------------- Iteration    1(   5)  ---------------------------------------


     EDDAV:  cpu time    1.2122: real time    1.2135
       DOS:  cpu time    0.0001: real time    0.0001
    CHARGE:  cpu time    0.0594: real time    0.0595
    MIXING:  cpu time    0.0072: real time    0.0073
    --------------------------------------------
      LOOP:  cpu time    1.2813: real time    1.2856

 eigenvalue-minimisations  :   480
 total energy-change (2. order) :-0.3222914E+00  (-0.3216440E+00)
 number of electron     120.9999897 magnetization      28.8707591
 augmentation part       72.0581775 magnetization      27.1424154

 Broyden mixing:
  rms(total) = 0.58461E+01    rms(broyden)= 0.58445E+01
  rms(prec ) = 0.59250E+01
  weight for this iteration     100.00

 Free energy of the ion-electron system (eV)
  ---------------------------------------------------
  alpha Z        PSCENC =        13.05042259
  Ewald energy   TEWEN  =     15756.09699548
  -Hartree energ DENC   =    -29704.71990234
  -exchange      EXHF   =         0.00000000
  -V(xc)+E(xc)   XCENC  =       504.08795398
  PAW double counting   =     13499.38897783   -14661.85464542
  entropy T*S    EENTRO =         0.00000000
  eigenvalues    EBANDS =      -722.31805500
  atomic energy  EATOM  =     15300.29143124
  Solvation  Ediel_sol  =         0.00000000
  ---------------------------------------------------
  free energy    TOTEN  =       -15.97682164 eV

  energy without entropy =      -15.97682164  energy(sigma->0) =      -15.97682164


--------------------------------------------------------------------------------------------------------




----------------------------------------- Iteration    1(   6)  ---------------------------------------


    POTLOK:  cpu time    0.2962: real time    0.3044
    SETDIJ:  cpu time    0.0088: real time    0.0088
     EDDAV:  cpu time    1.4878: real time    1.5040
       DOS:  cpu time    0.0001: real time    0.0001
    CHARGE:  cpu time    0.0568: real time    0.0569
    MIXING:  cpu time    0.0077: real time    0.0077
    --------------------------------------------
      LOOP:  cpu time    1.8605: real time    1.8880

 eigenvalue-minimisations  :   408
 total energy-change (2. order) : 0.9414694E+02  (-0.5078405E+02)
 number of electron     120.9999874 magnetization      26.0991637
 augmentation part       83.1692673 magnetization      16.4624168

 Broyden mixing:
  rms(total) = 0.24998E+01    rms(broyden)= 0.24972E+01
  rms(prec ) = 0.26469E+01
  weight for this iteration     100.00

 eigenvalues of (default mixing * dielectric matrix)
  average eigenvalue GAMMA=   0.9308
  0.9308

 Free energy of the ion-electron system (eV)
  ---------------------------------------------------
  alpha Z        PSCENC =        13.05042259
  Ewald energy   TEWEN  =     15756.09699548
  -Hartree energ DENC   =    -29410.19230525
  -exchange      EXHF   =         0.00000000
  -V(xc)+E(xc)   XCENC  =       559.10065262
  PAW double counting   =     13502.46595324   -14612.13264321
  entropy T*S    EENTRO =        -0.00000000
  eigenvalues    EBANDS =     -1030.51038570
  atomic energy  EATOM  =     15300.29143124
  Solvation  Ediel_sol  =         0.00000000
  ---------------------------------------------------
  free energy    TOTEN  =        78.17012101 eV

  energy without entropy =       78.17012101  energy(sigma->0) =       78.17012101


--------------------------------------------------------------------------------------------------------




----------------------------------------- Iteration    1(   7)  ---------------------------------------


    POTLOK:  cpu time    0.2916: real time    0.2921
    SETDIJ:  cpu time    0.0069: real time    0.0069
     EDDAV:  cpu time    1.1009: real time    1.1025
       DOS:  cpu time    0.0001: real time    0.0001
    CHARGE:  cpu time    0.0567: real time    0.0567
    MIXING:  cpu time    0.0078: real time    0.0078
    --------------------------------------------
      LOOP:  cpu time    1.4673: real time    1.4724

 eigenvalue-minimisations  :   432
 total energy-change (2. order) :-0.1978878E+02  (-0.2115424E+02)
 number of electron     120.9999882 magnetization      22.7994023
 augmentation part       78.2614892 magnetization      12.7234204

 Broyden mixing:
  rms(total) = 0.11109E+01    rms(broyden)= 0.11099E+01
  rms(prec ) = 0.11387E+01
  weight for this iteration     100.00

 eigenvalues of (default mixing * dielectric matrix)
  average eigenvalue GAMMA=   0.9035
  1.1247  0.6823

 Free energy of the ion-electron system (eV)
  ---------------------------------------------------
  alpha Z        PSCENC =        13.05042259
  Ewald energy   TEWEN  =     15756.09699548
  -Hartree energ DENC   =    -29662.14254605
  -exchange      EXHF   =         0.00000000
  -V(xc)+E(xc)   XCENC  =       554.45429663
  PAW double counting   =     13882.30226095   -15084.17346473
  entropy T*S    EENTRO =         0.00000000
  eigenvalues    EBANDS =      -701.49805632
  atomic energy  EATOM  =     15300.29143124
  Solvation  Ediel_sol  =         0.00000000
  ---------------------------------------------------
  free energy    TOTEN  =        58.38133979 eV

  energy without entropy =       58.38133979  energy(sigma->0) =       58.38133979


--------------------------------------------------------------------------------------------------------




----------------------------------------- Iteration    1(   8)  ---------------------------------------


    POTLOK:  cpu time    0.2908: real time    0.2909
    SETDIJ:  cpu time    0.0069: real time    0.0069
     EDDAV:  cpu time    1.2198: real time    1.2213
       DOS:  cpu time    0.0001: real time    0.0001
    CHARGE:  cpu time    0.0604: real time    0.0604
    MIXING:  cpu time    0.0087: real time    0.0087
    --------------------------------------------
      LOOP:  cpu time    1.5898: real time    1.5944

 eigenvalue-minimisations  :   488
 total energy-change (2. order) : 0.5101276E+01  (-0.2391580E+01)
 number of electron     120.9999881 magnetization      20.8939893
 augmentation part       77.6377538 magnetization      10.4165679

 Broyden mixing:
  rms(total) = 0.89762E+00    rms(broyden)= 0.89720E+00
  rms(prec ) = 0.93570E+00
  weight for this iteration     100.00

 eigenvalues of (default mixing * dielectric matrix)
  average eigenvalue GAMMA=   0.8600
  1.2405  0.6697  0.6697

 Free energy of the ion-electron system (eV)
  ---------------------------------------------------
  alpha Z        PSCENC =        13.05042259
  Ewald energy   TEWEN  =     15756.09699548
  -Hartree energ DENC   =    -29707.54690836
  -exchange      EXHF   =         0.00000000
  -V(xc)+E(xc)   XCENC  =       558.11064520
  PAW double counting   =     14129.88791149   -15333.48618404
  entropy T*S    EENTRO =         0.00000000
  eigenvalues    EBANDS =      -652.92169827
  atomic energy  EATOM  =     15300.29143124
  Solvation  Ediel_sol  =         0.00000000
  ---------------------------------------------------
  free energy    TOTEN  =        63.48261532 eV

  energy without entropy =       63.48261532  energy(sigma->0) =       63.48261532


--------------------------------------------------------------------------------------------------------




----------------------------------------- Iteration    1(   9)  ---------------------------------------


    POTLOK:  cpu time    0.2940: real time    0.2942
    SETDIJ:  cpu time    0.0072: real time    0.0072
     EDDAV:  cpu time    1.1338: real time    1.1350
       DOS:  cpu time    0.0001: real time    0.0001
    CHARGE:  cpu time    0.0573: real time    0.0573
    MIXING:  cpu time    0.0087: real time    0.0087
    --------------------------------------------
      LOOP:  cpu time    1.5044: real time    1.5085

 eigenvalue-minimisations  :   448
 total energy-change (2. order) :-0.9941290E+01  (-0.4928900E+00)
 number of electron     120.9999882 magnetization      17.2327842
 augmentation part       77.8101765 magnetization       7.0114014

 Broyden mixing:
  rms(total) = 0.58990E+00    rms(broyden)= 0.58961E+00
  rms(prec ) = 0.59858E+00
  weight for this iteration     100.00

 eigenvalues of (default mixing * dielectric matrix)
  average eigenvalue GAMMA=   0.9410
  1.2850  1.2850  0.6966  0.4975

 Free energy of the ion-electron system (eV)
  ---------------------------------------------------
  alpha Z        PSCENC =        13.05042259
  Ewald energy   TEWEN  =     15756.09699548
  -Hartree energ DENC   =    -29703.89633528
  -exchange      EXHF   =         0.00000000
  -V(xc)+E(xc)   XCENC  =       549.55111041
  PAW double counting   =     14186.95474615   -15384.46184744
  entropy T*S    EENTRO =         0.00000000
  eigenvalues    EBANDS =      -664.04519811
  atomic energy  EATOM  =     15300.29143124
  Solvation  Ediel_sol  =         0.00000000
  ---------------------------------------------------
  free energy    TOTEN  =        53.54132504 eV

  energy without entropy =       53.54132504  energy(sigma->0) =       53.54132504


--------------------------------------------------------------------------------------------------------




----------------------------------------- Iteration    1(  10)  ---------------------------------------


    POTLOK:  cpu time    0.2894: real time    0.2916
    SETDIJ:  cpu time    0.0070: real time    0.0070
     EDDAV:  cpu time    1.1245: real time    1.1259
       DOS:  cpu time    0.0001: real time    0.0001
    CHARGE:  cpu time    0.0568: real time    0.0569
    MIXING:  cpu time    0.0091: real time    0.0091
    --------------------------------------------
      LOOP:  cpu time    1.4901: real time    1.4969

 eigenvalue-minimisations  :   444
 total energy-change (2. order) :-0.2625962E+02  (-0.1621900E+01)
 number of electron     120.9999883 magnetization      15.0412703
 augmentation part       78.0294373 magnetization       5.8305413

 Broyden mixing:
  rms(total) = 0.46331E+00    rms(broyden)= 0.46313E+00
  rms(prec ) = 0.47403E+00
  weight for this iteration     100.00

 eigenvalues of (default mixing * dielectric matrix)
  average eigenvalue GAMMA=   1.0510
  1.7374  1.7374  0.6394  0.6394  0.5016

 Free energy of the ion-electron system (eV)
  ---------------------------------------------------
  alpha Z        PSCENC =        13.05042259
  Ewald energy   TEWEN  =     15756.09699548
  -Hartree energ DENC   =    -29690.35637343
  -exchange      EXHF   =         0.00000000
  -V(xc)+E(xc)   XCENC  =       528.31259999
  PAW double counting   =     14233.24362382   -15416.78041435
  entropy T*S    EENTRO =         0.00000000
  eigenvalues    EBANDS =      -696.57658335
  atomic energy  EATOM  =     15300.29143124
  Solvation  Ediel_sol  =         0.00000000
  ---------------------------------------------------
  free energy    TOTEN  =        27.28170198 eV

  energy without entropy =       27.28170198  energy(sigma->0) =       27.28170198


--------------------------------------------------------------------------------------------------------




----------------------------------------- Iteration    1(  11)  ---------------------------------------


    POTLOK:  cpu time    0.2911: real time    0.2919
    SETDIJ:  cpu time    0.0070: real time    0.0070
     EDDAV:  cpu time    1.1801: real time    1.1812
       DOS:  cpu time    0.0001: real time    0.0001
    CHARGE:  cpu time    0.0571: real time    0.0572
    MIXING:  cpu time    0.0095: real time    0.0095
    --------------------------------------------
      LOOP:  cpu time    1.5483: real time    1.5531

 eigenvalue-minimisations  :   472
 total energy-change (2. order) :-0.1431047E+02  (-0.7728963E+00)
 number of electron     120.9999888 magnetization      13.3169792
 augmentation part       78.1484453 magnetization       6.4991214

 Broyden mixing:
  rms(total) = 0.43258E+00    rms(broyden)= 0.43125E+00
  rms(prec ) = 0.44925E+00
  weight for this iteration     100.00

 eigenvalues of (default mixing * dielectric matrix)
  average eigenvalue GAMMA=   0.9459
  1.8049  1.8049  0.6132  0.6132  0.5282  0.3110

 Free energy of the ion-electron system (eV)
  ---------------------------------------------------
  alpha Z        PSCENC =        13.05042259
  Ewald energy   TEWEN  =     15756.09699548
  -Hartree energ DENC   =    -29681.74217526
  -exchange      EXHF   =         0.00000000
  -V(xc)+E(xc)   XCENC  =       516.92746551
  PAW double counting   =     14225.85278838   -15403.72681836
  entropy T*S    EENTRO =         0.00000000
  eigenvalues    EBANDS =      -713.77887974
  atomic energy  EATOM  =     15300.29143124
  Solvation  Ediel_sol  =         0.00000000
  ---------------------------------------------------
  free energy    TOTEN  =        12.97122984 eV

  energy without entropy =       12.97122984  energy(sigma->0) =       12.97122984


--------------------------------------------------------------------------------------------------------




----------------------------------------- Iteration    1(  12)  ---------------------------------------


    POTLOK:  cpu time    0.2931: real time    0.2933
    SETDIJ:  cpu time    0.0068: real time    0.0068
     EDDAV:  cpu time    1.1800: real time    1.1817
       DOS:  cpu time    0.0001: real time    0.0001
    CHARGE:  cpu time    0.0573: real time    0.0577
    MIXING:  cpu time    0.0099: real time    0.0100
    --------------------------------------------
      LOOP:  cpu time    1.5506: real time    1.5557

 eigenvalue-minimisations  :   472
 total energy-change (2. order) :-0.5494702E+01  (-0.3406848E+00)
 number of electron     120.9999891 magnetization      12.5836674
 augmentation part       78.1538291 magnetization       7.7718737

 Broyden mixing:
  rms(total) = 0.44946E+00    rms(broyden)= 0.44818E+00
  rms(prec ) = 0.46587E+00
  weight for this iteration     100.00

 eigenvalues of (default mixing * dielectric matrix)
  average eigenvalue GAMMA=   0.8145
  1.8066  1.8066  0.6111  0.6111  0.5286  0.3027  0.0350

 Free energy of the ion-electron system (eV)
  ---------------------------------------------------
  alpha Z        PSCENC =        13.05042259
  Ewald energy   TEWEN  =     15756.09699548
  -Hartree energ DENC   =    -29691.54617007
  -exchange      EXHF   =         0.00000000
  -V(xc)+E(xc)   XCENC  =       513.20659016
  PAW double counting   =     14253.55180878   -15431.47891590
  entropy T*S    EENTRO =         0.00000000
  eigenvalues    EBANDS =      -705.69563400
  atomic energy  EATOM  =     15300.29143124
  Solvation  Ediel_sol  =         0.00000000
  ---------------------------------------------------
  free energy    TOTEN  =         7.47652828 eV

  energy without entropy =        7.47652828  energy(sigma->0) =        7.47652828


--------------------------------------------------------------------------------------------------------




----------------------------------------- Iteration    1(  13)  ---------------------------------------


    POTLOK:  cpu time    0.2923: real time    0.2926
    SETDIJ:  cpu time    0.0068: real time    0.0068
     EDDAV:  cpu time    1.1960: real time    1.1975
       DOS:  cpu time    0.0001: real time    0.0001
    CHARGE:  cpu time    0.0569: real time    0.0570
    MIXING:  cpu time    0.0105: real time    0.0105
    --------------------------------------------
      LOOP:  cpu time    1.5660: real time    1.5708

 eigenvalue-minimisations  :   480
 total energy-change (2. order) :-0.1452896E+01  (-0.8686442E-01)
 number of electron     120.9999891 magnetization      10.5600862
 augmentation part       78.0243211 magnetization       5.9292429

 Broyden mixing:
  rms(total) = 0.38320E+00    rms(broyden)= 0.38312E+00
  rms(prec ) = 0.39601E+00
  weight for this iteration     100.00

 eigenvalues of (default mixing * dielectric matrix)
  average eigenvalue GAMMA=   0.9327
  2.0264  2.0264  0.6702  0.6702  0.6040  0.6040  0.5332  0.3277

 Free energy of the ion-electron system (eV)
  ---------------------------------------------------
  alpha Z        PSCENC =        13.05042259
  Ewald energy   TEWEN  =     15756.09699548
  -Hartree energ DENC   =    -29698.64144773
  -exchange      EXHF   =         0.00000000
  -V(xc)+E(xc)   XCENC  =       512.54716968
  PAW double counting   =     14270.55676170   -15448.94350851
  entropy T*S    EENTRO =         0.00000000
  eigenvalues    EBANDS =      -698.93419231
  atomic energy  EATOM  =     15300.29143124
  Solvation  Ediel_sol  =         0.00000000
  ---------------------------------------------------
  free energy    TOTEN  =         6.02363214 eV

  energy without entropy =        6.02363214  energy(sigma->0) =        6.02363214


--------------------------------------------------------------------------------------------------------




----------------------------------------- Iteration    1(  14)  ---------------------------------------


    POTLOK:  cpu time    0.3031: real time    0.3058
    SETDIJ:  cpu time    0.0086: real time    0.0086
     EDDAV:  cpu time    1.2057: real time    1.2077
       DOS:  cpu time    0.0001: real time    0.0001
    CHARGE:  cpu time    0.0585: real time    0.0586
    MIXING:  cpu time    0.0115: real time    0.0115
    --------------------------------------------
      LOOP:  cpu time    1.5905: real time    1.5984

 eigenvalue-minimisations  :   480
 total energy-change (2. order) :-0.8057294E+01  (-0.4390168E+00)
 number of electron     120.9999891 magnetization       6.5802650
 augmentation part       77.9711457 magnetization       2.4327995

 Broyden mixing:
  rms(total) = 0.29162E+00    rms(broyden)= 0.29159E+00
  rms(prec ) = 0.30368E+00
  weight for this iteration     100.00

 eigenvalues of (default mixing * dielectric matrix)
  average eigenvalue GAMMA=   1.1049
  3.8074  1.8152  0.7854  0.7854  0.7129  0.7129  0.4980  0.4980  0.3290

 Free energy of the ion-electron system (eV)
  ---------------------------------------------------
  alpha Z        PSCENC =        13.05042259
  Ewald energy   TEWEN  =     15756.09699548
  -Hartree energ DENC   =    -29701.94847037
  -exchange      EXHF   =         0.00000000
  -V(xc)+E(xc)   XCENC  =       506.53427004
  PAW double counting   =     14263.04300824   -15439.88514716
  entropy T*S    EENTRO =         0.00000000
  eigenvalues    EBANDS =      -699.21617212
  atomic energy  EATOM  =     15300.29143124
  Solvation  Ediel_sol  =         0.00000000
  ---------------------------------------------------
  free energy    TOTEN  =        -2.03366206 eV

  energy without entropy =       -2.03366206  energy(sigma->0) =       -2.03366206


--------------------------------------------------------------------------------------------------------




----------------------------------------- Iteration    1(  15)  ---------------------------------------


    POTLOK:  cpu time    0.2936: real time    0.2938
    SETDIJ:  cpu time    0.0073: real time    0.0073
     EDDAV:  cpu time    1.2554: real time    1.2624
       DOS:  cpu time    0.0002: real time    0.0002
    CHARGE:  cpu time    0.0572: real time    0.0574
    MIXING:  cpu time    0.0117: real time    0.0117
    --------------------------------------------
      LOOP:  cpu time    1.6288: real time    1.6389

 eigenvalue-minimisations  :   512
 total energy-change (2. order) :-0.1336412E+02  (-0.1052776E+01)
 number of electron     120.9999891 magnetization       5.2179836
 augmentation part       77.7311783 magnetization       1.8594998

 Broyden mixing:
  rms(total) = 0.16084E+00    rms(broyden)= 0.16065E+00
  rms(prec ) = 0.16649E+00
  weight for this iteration     100.00

 eigenvalues of (default mixing * dielectric matrix)
  average eigenvalue GAMMA=   1.1475
  4.4243  1.5455  1.3643  0.7852  0.7852  0.6298  0.5924  0.5131  0.5131  0.3222

 Free energy of the ion-electron system (eV)
  ---------------------------------------------------
  alpha Z        PSCENC =        13.05042259
  Ewald energy   TEWEN  =     15756.09699548
  -Hartree energ DENC   =    -29710.16829026
  -exchange      EXHF   =         0.00000000
  -V(xc)+E(xc)   XCENC  =       495.93024714
  PAW double counting   =     14242.44621073   -15418.93052609
  entropy T*S    EENTRO =         0.00000000
  eigenvalues    EBANDS =      -694.11427189
  atomic energy  EATOM  =     15300.29143124
  Solvation  Ediel_sol  =         0.00000000
  ---------------------------------------------------
  free energy    TOTEN  =       -15.39778107 eV

  energy without entropy =      -15.39778107  energy(sigma->0) =      -15.39778107


--------------------------------------------------------------------------------------------------------




----------------------------------------- Iteration    1(  16)  ---------------------------------------


    POTLOK:  cpu time    0.2928: real time    0.2929
    SETDIJ:  cpu time    0.0070: real time    0.0070
     EDDAV:  cpu time    1.2412: real time    1.2437
       DOS:  cpu time    0.0001: real time    0.0001
    CHARGE:  cpu time    0.0572: real time    0.0572
    MIXING:  cpu time    0.0121: real time    0.0121
    --------------------------------------------
      LOOP:  cpu time    1.6138: real time    1.6193

 eigenvalue-minimisations  :   504
 total energy-change (2. order) :-0.4390797E+01  (-0.2294529E+00)
 number of electron     120.9999891 magnetization       4.5345293
 augmentation part       77.5506422 magnetization       3.1011185

 Broyden mixing:
  rms(total) = 0.23668E+00    rms(broyden)= 0.23530E+00
  rms(prec ) = 0.25573E+00
  weight for this iteration     100.00

 eigenvalues of (default mixing * dielectric matrix)
  average eigenvalue GAMMA=   1.1078
  4.8619  1.4961  1.4961  0.7946  0.7946  0.5989  0.5989  0.5166  0.5166  0.3272
  0.1843

 Free energy of the ion-electron system (eV)
  ---------------------------------------------------
  alpha Z        PSCENC =        13.05042259
  Ewald energy   TEWEN  =     15756.09699548
  -Hartree energ DENC   =    -29713.94496159
  -exchange      EXHF   =         0.00000000
  -V(xc)+E(xc)   XCENC  =       492.81604253
  PAW double counting   =     14242.42301568   -15421.20653204
  entropy T*S    EENTRO =         0.00000000
  eigenvalues    EBANDS =      -689.31499246
  atomic energy  EATOM  =     15300.29143124
  Solvation  Ediel_sol  =         0.00000000
  ---------------------------------------------------
  free energy    TOTEN  =       -19.78857856 eV

  energy without entropy =      -19.78857856  energy(sigma->0) =      -19.78857856


--------------------------------------------------------------------------------------------------------




----------------------------------------- Iteration    1(  17)  ---------------------------------------


    POTLOK:  cpu time    0.2919: real time    0.2920
    SETDIJ:  cpu time    0.0068: real time    0.0068
     EDDAV:  cpu time    1.2106: real time    1.2115
       DOS:  cpu time    0.0002: real time    0.0002
    CHARGE:  cpu time    0.0570: real time    0.0570
    MIXING:  cpu time    0.0127: real time    0.0128
    --------------------------------------------
      LOOP:  cpu time    1.5825: real time    1.5865

 eigenvalue-minimisations  :   488
 total energy-change (2. order) :-0.6840162E+00  (-0.2490500E-01)
 number of electron     120.9999891 magnetization       3.5981400
 augmentation part       77.5630764 magnetization       2.2834746

 Broyden mixing:
  rms(total) = 0.18944E+00    rms(broyden)= 0.18936E+00
  rms(prec ) = 0.20801E+00
  weight for this iteration     100.00

 eigenvalues of (default mixing * dielectric matrix)
  average eigenvalue GAMMA=   1.1615
  5.4480  1.4880  1.4880  0.9086  0.9086  0.5728  0.5728  0.7151  0.6107  0.4729
  0.4316  0.3204

 Free energy of the ion-electron system (eV)
  ---------------------------------------------------
  alpha Z        PSCENC =        13.05042259
  Ewald energy   TEWEN  =     15756.09699548
  -Hartree energ DENC   =    -29712.18248815
  -exchange      EXHF   =         0.00000000
  -V(xc)+E(xc)   XCENC  =       492.23651378
  PAW double counting   =     14237.64086724   -15416.09587183
  entropy T*S    EENTRO =         0.00000000
  eigenvalues    EBANDS =      -691.51046513
  atomic energy  EATOM  =     15300.29143124
  Solvation  Ediel_sol  =         0.00000000
  ---------------------------------------------------
  free energy    TOTEN  =       -20.47259478 eV

  energy without entropy =      -20.47259478  energy(sigma->0) =      -20.47259478


--------------------------------------------------------------------------------------------------------




----------------------------------------- Iteration    1(  18)  ---------------------------------------


    POTLOK:  cpu time    0.2916: real time    0.2920
    SETDIJ:  cpu time    0.0068: real time    0.0068
     EDDAV:  cpu time    1.2728: real time    1.2741
       DOS:  cpu time    0.0001: real time    0.0001
    CHARGE:  cpu time    0.0569: real time    0.0571
    MIXING:  cpu time    0.0135: real time    0.0135
    --------------------------------------------
      LOOP:  cpu time    1.6448: real time    1.6498

 eigenvalue-minimisations  :   520
 total energy-change (2. order) :-0.1592122E+01  (-0.4477334E-01)
 number of electron     120.9999890 magnetization       2.6455614
 augmentation part       77.6098260 magnetization       1.4826023

 Broyden mixing:
  rms(total) = 0.14109E+00    rms(broyden)= 0.14107E+00
  rms(prec ) = 0.15643E+00
  weight for this iteration     100.00

 eigenvalues of (default mixing * dielectric matrix)
  average eigenvalue GAMMA=   1.2167
  6.0440  1.7614  1.2605  1.2605  0.7976  0.7976  0.7793  0.7793  0.5714  0.5714
  0.4920  0.3180  0.3842

 Free energy of the ion-electron system (eV)
  ---------------------------------------------------
  alpha Z        PSCENC =        13.05042259
  Ewald energy   TEWEN  =     15756.09699548
  -Hartree energ DENC   =    -29705.40678816
  -exchange      EXHF   =         0.00000000
  -V(xc)+E(xc)   XCENC  =       490.77590187
  PAW double counting   =     14213.98391638   -15391.96129329
  entropy T*S    EENTRO =         0.00000000
  eigenvalues    EBANDS =      -698.89530328
  atomic energy  EATOM  =     15300.29143124
  Solvation  Ediel_sol  =         0.00000000
  ---------------------------------------------------
  free energy    TOTEN  =       -22.06471717 eV

  energy without entropy =      -22.06471717  energy(sigma->0) =      -22.06471717


--------------------------------------------------------------------------------------------------------




----------------------------------------- Iteration    1(  19)  ---------------------------------------


    POTLOK:  cpu time    0.2915: real time    0.2921
    SETDIJ:  cpu time    0.0068: real time    0.0068
     EDDAV:  cpu time    1.2559: real time    1.2617
       DOS:  cpu time    0.0002: real time    0.0002
    CHARGE:  cpu time    0.0569: real time    0.0570
    MIXING:  cpu time    0.0142: real time    0.0142
    --------------------------------------------
      LOOP:  cpu time    1.6288: real time    1.6380

 eigenvalue-minimisations  :   488
 total energy-change (2. order) :-0.1738163E+01  (-0.4096894E-01)
 number of electron     120.9999891 magnetization       1.9223490
 augmentation part       77.6766378 magnetization       0.8715615

 Broyden mixing:
  rms(total) = 0.64243E-01    rms(broyden)= 0.64188E-01
  rms(prec ) = 0.71680E-01
  weight for this iteration     100.00

 eigenvalues of (default mixing * dielectric matrix)
  average eigenvalue GAMMA=   1.2744
  6.6670  2.1109  1.4661  1.4661  0.8325  0.8325  0.6772  0.6772  0.7063  0.7063
  0.4964  0.4964  0.3185  0.3877

 Free energy of the ion-electron system (eV)
  ---------------------------------------------------
  alpha Z        PSCENC =        13.05042259
  Ewald energy   TEWEN  =     15756.09699548
  -Hartree energ DENC   =    -29693.18974001
  -exchange      EXHF   =         0.00000000
  -V(xc)+E(xc)   XCENC  =       489.01405662
  PAW double counting   =     14176.84160539   -15354.59145569
  entropy T*S    EENTRO =         0.00000000
  eigenvalues    EBANDS =      -711.31619586
  atomic energy  EATOM  =     15300.29143124
  Solvation  Ediel_sol  =         0.00000000
  ---------------------------------------------------
  free energy    TOTEN  =       -23.80288025 eV

  energy without entropy =      -23.80288025  energy(sigma->0) =      -23.80288025


--------------------------------------------------------------------------------------------------------




----------------------------------------- Iteration    1(  20)  ---------------------------------------


    POTLOK:  cpu time    0.2923: real time    0.2924
    SETDIJ:  cpu time    0.0068: real time    0.0068
     EDDAV:  cpu time    1.1996: real time    1.2014
       DOS:  cpu time    0.0001: real time    0.0001
    CHARGE:  cpu time    0.0570: real time    0.0570
    MIXING:  cpu time    0.0150: real time    0.0150
    --------------------------------------------
      LOOP:  cpu time    1.5743: real time    1.5789

 eigenvalue-minimisations  :   480
 total energy-change (2. order) :-0.1261267E+01  (-0.2162425E-01)
 number of electron     120.9999890 magnetization       1.5286433
 augmentation part       77.7324281 magnetization       0.5451586

 Broyden mixing:
  rms(total) = 0.40271E-01    rms(broyden)= 0.40231E-01
  rms(prec ) = 0.43968E-01
  weight for this iteration     100.00

 eigenvalues of (default mixing * dielectric matrix)
  average eigenvalue GAMMA=   1.3039
  7.1201  2.2904  1.3776  1.3776  1.4308  0.8036  0.8036  0.8449  0.6420  0.6420
  0.5667  0.3184  0.4910  0.4572  0.3932

 Free energy of the ion-electron system (eV)
  ---------------------------------------------------
  alpha Z        PSCENC =        13.05042259
  Ewald energy   TEWEN  =     15756.09699548
  -Hartree energ DENC   =    -29683.60742816
  -exchange      EXHF   =         0.00000000
  -V(xc)+E(xc)   XCENC  =       487.70800544
  PAW double counting   =     14152.06951480   -15330.00783637
  entropy T*S    EENTRO =         0.00000000
  eigenvalues    EBANDS =      -720.66525252
  atomic energy  EATOM  =     15300.29143124
  Solvation  Ediel_sol  =         0.00000000
  ---------------------------------------------------
  free energy    TOTEN  =       -25.06414750 eV

  energy without entropy =      -25.06414750  energy(sigma->0) =      -25.06414750


--------------------------------------------------------------------------------------------------------




----------------------------------------- Iteration    1(  21)  ---------------------------------------


    POTLOK:  cpu time    0.2925: real time    0.2932
    SETDIJ:  cpu time    0.0071: real time    0.0071
     EDDAV:  cpu time    1.1522: real time    1.1533
       DOS:  cpu time    0.0001: real time    0.0001
    CHARGE:  cpu time    0.0569: real time    0.0569
    MIXING:  cpu time    0.0158: real time    0.0158
    --------------------------------------------
      LOOP:  cpu time    1.5280: real time    1.5326

 eigenvalue-minimisations  :   456
 total energy-change (2. order) :-0.7694705E+00  (-0.7123486E-02)
 number of electron     120.9999890 magnetization       1.3437700
 augmentation part       77.7169952 magnetization       0.3826588

 Broyden mixing:
  rms(total) = 0.30719E-01    rms(broyden)= 0.30710E-01
  rms(prec ) = 0.34475E-01
  weight for this iteration     100.00

 eigenvalues of (default mixing * dielectric matrix)
  average eigenvalue GAMMA=   1.2973
  7.3770  2.4035  1.3905  1.3905  1.3200  1.1897  0.8024  0.8024  0.6402  0.6402
  0.5856  0.5856  0.4611  0.4611  0.3183  0.3883

 Free energy of the ion-electron system (eV)
  ---------------------------------------------------
  alpha Z        PSCENC =        13.05042259
  Ewald energy   TEWEN  =     15756.09699548
  -Hartree energ DENC   =    -29681.48316908
  -exchange      EXHF   =         0.00000000
  -V(xc)+E(xc)   XCENC  =       486.97678359
  PAW double counting   =     14151.82394915   -15330.35533093
  entropy T*S    EENTRO =         0.00000000
  eigenvalues    EBANDS =      -722.23470004
  atomic energy  EATOM  =     15300.29143124
  Solvation  Ediel_sol  =         0.00000000
  ---------------------------------------------------
  free energy    TOTEN  =       -25.83361799 eV

  energy without entropy =      -25.83361799  energy(sigma->0) =      -25.83361799


--------------------------------------------------------------------------------------------------------




----------------------------------------- Iteration    1(  22)  ---------------------------------------


    POTLOK:  cpu time    0.2927: real time    0.2929
    SETDIJ:  cpu time    0.0069: real time    0.0069
     EDDAV:  cpu time    1.1347: real time    1.1375
       DOS:  cpu time    0.0001: real time    0.0001
    CHARGE:  cpu time    0.0588: real time    0.0589
    MIXING:  cpu time    0.0177: real time    0.0177
    --------------------------------------------
      LOOP:  cpu time    1.5140: real time    1.5200

 eigenvalue-minimisations  :   432
 total energy-change (2. order) :-0.3583395E+00  (-0.1395843E-02)
 number of electron     120.9999890 magnetization       1.1436418
 augmentation part       77.7140836 magnetization       0.1923209

 Broyden mixing:
  rms(total) = 0.17502E-01    rms(broyden)= 0.17496E-01
  rms(prec ) = 0.20935E-01
  weight for this iteration     100.00

 eigenvalues of (default mixing * dielectric matrix)
  average eigenvalue GAMMA=   1.3470
  7.7509  2.7216  2.0282  1.4247  1.4247  1.1295  0.8130  0.8130  0.6426  0.6426
  0.7083  0.6572  0.3183  0.3934  0.4896  0.4896  0.4524

 Free energy of the ion-electron system (eV)
  ---------------------------------------------------
  alpha Z        PSCENC =        13.05042259
  Ewald energy   TEWEN  =     15756.09699548
  -Hartree energ DENC   =    -29679.43919409
  -exchange      EXHF   =         0.00000000
  -V(xc)+E(xc)   XCENC  =       486.60821662
  PAW double counting   =     14151.77031653   -15330.45558030
  entropy T*S    EENTRO =         0.00000000
  eigenvalues    EBANDS =      -724.11456559
  atomic energy  EATOM  =     15300.29143124
  Solvation  Ediel_sol  =         0.00000000
  ---------------------------------------------------
  free energy    TOTEN  =       -26.19195752 eV

  energy without entropy =      -26.19195752  energy(sigma->0) =      -26.19195752


--------------------------------------------------------------------------------------------------------




----------------------------------------- Iteration    1(  23)  ---------------------------------------


    POTLOK:  cpu time    0.2941: real time    0.2945
    SETDIJ:  cpu time    0.0073: real time    0.0073
     EDDAV:  cpu time    1.2114: real time    1.2124
       DOS:  cpu time    0.0001: real time    0.0002
    CHARGE:  cpu time    0.0573: real time    0.0574
    MIXING:  cpu time    0.0177: real time    0.0177
    --------------------------------------------
      LOOP:  cpu time    1.5913: real time    1.5957

 eigenvalue-minimisations  :   488
 total energy-change (2. order) :-0.3496218E+00  (-0.9676317E-03)
 number of electron     120.9999890 magnetization       1.0999444
 augmentation part       77.7123005 magnetization       0.1519326

 Broyden mixing:
  rms(total) = 0.10447E-01    rms(broyden)= 0.10444E-01
  rms(prec ) = 0.13072E-01
  weight for this iteration     100.00

 eigenvalues of (default mixing * dielectric matrix)
  average eigenvalue GAMMA=   1.3462
  7.8179  3.0663  1.9924  1.4512  1.4512  1.0880  1.0880  0.8061  0.8061  0.6410
  0.6410  0.6423  0.6346  0.3183  0.4819  0.4819  0.3918  0.4316

 Free energy of the ion-electron system (eV)
  ---------------------------------------------------
  alpha Z        PSCENC =        13.05042259
  Ewald energy   TEWEN  =     15756.09699548
  -Hartree energ DENC   =    -29676.01875586
  -exchange      EXHF   =         0.00000000
  -V(xc)+E(xc)   XCENC  =       486.23555095
  PAW double counting   =     14152.51821785   -15331.43050144
  entropy T*S    EENTRO =         0.00000000
  eigenvalues    EBANDS =      -727.28494013
  atomic energy  EATOM  =     15300.29143124
  Solvation  Ediel_sol  =         0.00000000
  ---------------------------------------------------
  free energy    TOTEN  =       -26.54157933 eV

  energy without entropy =      -26.54157933  energy(sigma->0) =      -26.54157933


--------------------------------------------------------------------------------------------------------




----------------------------------------- Iteration    1(  24)  ---------------------------------------


    POTLOK:  cpu time    0.2924: real time    0.2930
    SETDIJ:  cpu time    0.0069: real time    0.0069
     EDDAV:  cpu time    1.2137: real time    1.2152
       DOS:  cpu time    0.0002: real time    0.0002
    CHARGE:  cpu time    0.0558: real time    0.0617
    MIXING:  cpu time    0.0188: real time    0.0188
    --------------------------------------------
      LOOP:  cpu time    1.5911: real time    1.6018

 eigenvalue-minimisations  :   488
 total energy-change (2. order) :-0.7093897E-01  (-0.2076611E-03)
 number of electron     120.9999890 magnetization       1.0804582
 augmentation part       77.7160287 magnetization       0.1296256

 Broyden mixing:
  rms(total) = 0.70684E-02    rms(broyden)= 0.70667E-02
  rms(prec ) = 0.92230E-02
  weight for this iteration     100.00

 eigenvalues of (default mixing * dielectric matrix)
  average eigenvalue GAMMA=   1.3720
  7.8549  3.4415  1.9990  1.9990  1.3491  1.3491  0.8076  0.8076  0.9025  0.9025
  0.6360  0.6360  0.7048  0.5733  0.3183  0.3920  0.4886  0.4602  0.4465

 Free energy of the ion-electron system (eV)
  ---------------------------------------------------
  alpha Z        PSCENC =        13.05042259
  Ewald energy   TEWEN  =     15756.09699548
  -Hartree energ DENC   =    -29673.93834897
  -exchange      EXHF   =         0.00000000
  -V(xc)+E(xc)   XCENC  =       486.14318915
  PAW double counting   =     14152.75803507   -15331.67090733
  entropy T*S    EENTRO =         0.00000000
  eigenvalues    EBANDS =      -729.34333553
  atomic energy  EATOM  =     15300.29143124
  Solvation  Ediel_sol  =         0.00000000
  ---------------------------------------------------
  free energy    TOTEN  =       -26.61251829 eV

  energy without entropy =      -26.61251829  energy(sigma->0) =      -26.61251829


--------------------------------------------------------------------------------------------------------




----------------------------------------- Iteration    1(  25)  ---------------------------------------


    POTLOK:  cpu time    0.2922: real time    0.2924
    SETDIJ:  cpu time    0.0070: real time    0.0070
     EDDAV:  cpu time    1.1381: real time    1.1393
       DOS:  cpu time    0.0001: real time    0.0002
    CHARGE:  cpu time    0.0574: real time    0.0577
    MIXING:  cpu time    0.0202: real time    0.0202
    --------------------------------------------
      LOOP:  cpu time    1.5181: real time    1.5280

 eigenvalue-minimisations  :   448
 total energy-change (2. order) :-0.3162920E-01  (-0.1173935E-03)
 number of electron     120.9999890 magnetization       1.0520590
 augmentation part       77.7185361 magnetization       0.0990209

 Broyden mixing:
  rms(total) = 0.44623E-02    rms(broyden)= 0.44603E-02
  rms(prec ) = 0.61898E-02
  weight for this iteration     100.00

 eigenvalues of (default mixing * dielectric matrix)
  average eigenvalue GAMMA=   1.3661
  7.9035  3.6218  2.1625  2.1625  1.3671  1.3671  0.9899  0.9899  0.8054  0.8054
  0.6374  0.6374  0.6849  0.3183  0.5513  0.5513  0.3907  0.4782  0.4486  0.4486

 Free energy of the ion-electron system (eV)
  ---------------------------------------------------
  alpha Z        PSCENC =        13.05042259
  Ewald energy   TEWEN  =     15756.09699548
  -Hartree energ DENC   =    -29672.41427291
  -exchange      EXHF   =         0.00000000
  -V(xc)+E(xc)   XCENC  =       486.09678166
  PAW double counting   =     14153.88108613   -15332.76133175
  entropy T*S    EENTRO =         0.00000000
  eigenvalues    EBANDS =      -730.88525993
  atomic energy  EATOM  =     15300.29143124
  Solvation  Ediel_sol  =         0.00000000
  ---------------------------------------------------
  free energy    TOTEN  =       -26.64414749 eV

  energy without entropy =      -26.64414749  energy(sigma->0) =      -26.64414749


--------------------------------------------------------------------------------------------------------




----------------------------------------- Iteration    1(  26)  ---------------------------------------


    POTLOK:  cpu time    0.2920: real time    0.2923
    SETDIJ:  cpu time    0.0069: real time    0.0069
     EDDAV:  cpu time    1.2660: real time    1.2680
       DOS:  cpu time    0.0001: real time    0.0001
    CHARGE:  cpu time    0.0572: real time    0.0573
    MIXING:  cpu time    0.0216: real time    0.0216
    --------------------------------------------
      LOOP:  cpu time    1.6472: real time    1.6524

 eigenvalue-minimisations  :   516
 total energy-change (2. order) :-0.1316565E-01  (-0.6650957E-04)
 number of electron     120.9999890 magnetization       1.0215253
 augmentation part       77.7205344 magnetization       0.0689381

 Broyden mixing:
  rms(total) = 0.26391E-02    rms(broyden)= 0.26380E-02
  rms(prec ) = 0.40658E-02
  weight for this iteration     100.00

 eigenvalues of (default mixing * dielectric matrix)
  average eigenvalue GAMMA=   1.3778
  7.9474  3.6741  2.6969  1.6820  1.6820  1.3465  1.3465  0.8077  0.8077  0.8715
  0.8715  0.7563  0.6367  0.6367  0.3183  0.5748  0.3913  0.4957  0.4957  0.4471
  0.4471

 Free energy of the ion-electron system (eV)
  ---------------------------------------------------
  alpha Z        PSCENC =        13.05042259
  Ewald energy   TEWEN  =     15756.09699548
  -Hartree energ DENC   =    -29671.33477726
  -exchange      EXHF   =         0.00000000
  -V(xc)+E(xc)   XCENC  =       486.07485455
  PAW double counting   =     14154.69717329   -15333.55286518
  entropy T*S    EENTRO =         0.00000000
  eigenvalues    EBANDS =      -731.98054786
  atomic energy  EATOM  =     15300.29143124
  Solvation  Ediel_sol  =         0.00000000
  ---------------------------------------------------
  free energy    TOTEN  =       -26.65731314 eV

  energy without entropy =      -26.65731314  energy(sigma->0) =      -26.65731314


--------------------------------------------------------------------------------------------------------




----------------------------------------- Iteration    1(  27)  ---------------------------------------


    POTLOK:  cpu time    0.2915: real time    0.2918
    SETDIJ:  cpu time    0.0069: real time    0.0069
     EDDAV:  cpu time    1.2074: real time    1.2084
       DOS:  cpu time    0.0001: real time    0.0001
    CHARGE:  cpu time    0.0571: real time    0.0571
    MIXING:  cpu time    0.0232: real time    0.0232
    --------------------------------------------
      LOOP:  cpu time    1.5895: real time    1.5938

 eigenvalue-minimisations  :   484
 total energy-change (2. order) :-0.3520353E-02  (-0.4437080E-04)
 number of electron     120.9999890 magnetization       1.0119813
 augmentation part       77.7167741 magnetization       0.0594037

 Broyden mixing:
  rms(total) = 0.22448E-02    rms(broyden)= 0.22441E-02
  rms(prec ) = 0.32178E-02
  weight for this iteration     100.00

 eigenvalues of (default mixing * dielectric matrix)
  average eigenvalue GAMMA=   1.3868
  7.9316  4.0520  2.7278  1.7993  1.7993  1.3605  1.3605  1.0262  1.0262  0.8059
  0.8059  0.7362  0.6401  0.6401  0.6072  0.6072  0.3183  0.3914  0.4880  0.4880
  0.4486  0.4486

 Free energy of the ion-electron system (eV)
  ---------------------------------------------------
  alpha Z        PSCENC =        13.05042259
  Ewald energy   TEWEN  =     15756.09699548
  -Hartree energ DENC   =    -29670.72090901
  -exchange      EXHF   =         0.00000000
  -V(xc)+E(xc)   XCENC  =       486.07318585
  PAW double counting   =     14156.01701942   -15334.90622081
  entropy T*S    EENTRO =         0.00000000
  eigenvalues    EBANDS =      -732.56275826
  atomic energy  EATOM  =     15300.29143124
  Solvation  Ediel_sol  =         0.00000000
  ---------------------------------------------------
  free energy    TOTEN  =       -26.66083350 eV

  energy without entropy =      -26.66083350  energy(sigma->0) =      -26.66083350


--------------------------------------------------------------------------------------------------------




----------------------------------------- Iteration    1(  28)  ---------------------------------------


    POTLOK:  cpu time    0.2919: real time    0.2923
    SETDIJ:  cpu time    0.0069: real time    0.0069
     EDDAV:  cpu time    1.2766: real time    1.2774
       DOS:  cpu time    0.0001: real time    0.0001
    CHARGE:  cpu time    0.0570: real time    0.0570
    MIXING:  cpu time    0.0252: real time    0.0252
    --------------------------------------------
      LOOP:  cpu time    1.6611: real time    1.6652

 eigenvalue-minimisations  :   520
 total energy-change (2. order) :-0.1831197E-02  (-0.2743953E-04)
 number of electron     120.9999890 magnetization       1.0128858
 augmentation part       77.7169186 magnetization       0.0606591

 Broyden mixing:
  rms(total) = 0.18829E-02    rms(broyden)= 0.18826E-02
  rms(prec ) = 0.25429E-02
  weight for this iteration     100.00

 eigenvalues of (default mixing * dielectric matrix)
  average eigenvalue GAMMA=   1.3933
  7.8838  4.4818  2.4635  2.4635  1.5007  1.5007  1.3404  1.3404  0.8068  0.8068
  0.8515  0.8515  0.7432  0.6374  0.6374  0.6208  0.3183  0.5209  0.5209  0.3913
  0.4666  0.4488  0.4488

 Free energy of the ion-electron system (eV)
  ---------------------------------------------------
  alpha Z        PSCENC =        13.05042259
  Ewald energy   TEWEN  =     15756.09699548
  -Hartree energ DENC   =    -29670.03457079
  -exchange      EXHF   =         0.00000000
  -V(xc)+E(xc)   XCENC  =       486.06692737
  PAW double counting   =     14156.08528711   -15334.97420959
  entropy T*S    EENTRO =         0.00000000
  eigenvalues    EBANDS =      -733.24494811
  atomic energy  EATOM  =     15300.29143124
  Solvation  Ediel_sol  =         0.00000000
  ---------------------------------------------------
  free energy    TOTEN  =       -26.66266469 eV

  energy without entropy =      -26.66266469  energy(sigma->0) =      -26.66266469


--------------------------------------------------------------------------------------------------------




----------------------------------------- Iteration    1(  29)  ---------------------------------------


    POTLOK:  cpu time    0.2909: real time    0.2922
    SETDIJ:  cpu time    0.0068: real time    0.0068
     EDDAV:  cpu time    1.2643: real time    1.2664
       DOS:  cpu time    0.0001: real time    0.0001
    CHARGE:  cpu time    0.0570: real time    0.0571
    MIXING:  cpu time    0.0273: real time    0.0273
    --------------------------------------------
      LOOP:  cpu time    1.6497: real time    1.6558

 eigenvalue-minimisations  :   512
 total energy-change (2. order) :-0.1373237E-02  (-0.1231133E-04)
 number of electron     120.9999890 magnetization       1.0037286
 augmentation part       77.7188307 magnetization       0.0509500

 Broyden mixing:
  rms(total) = 0.13805E-02    rms(broyden)= 0.13801E-02
  rms(prec ) = 0.18079E-02
  weight for this iteration     100.00

 eigenvalues of (default mixing * dielectric matrix)
  average eigenvalue GAMMA=   1.4143
  7.8855  4.8658  2.7445  2.6072  1.4993  1.4993  1.3637  1.3637  1.1733  0.8061
  0.8061  0.8455  0.8455  0.6395  0.6395  0.6249  0.6249  0.3183  0.3914  0.5303
  0.4975  0.4725  0.4495  0.4495

 Free energy of the ion-electron system (eV)
  ---------------------------------------------------
  alpha Z        PSCENC =        13.05042259
  Ewald energy   TEWEN  =     15756.09699548
  -Hartree energ DENC   =    -29669.43621119
  -exchange      EXHF   =         0.00000000
  -V(xc)+E(xc)   XCENC  =       486.05960600
  PAW double counting   =     14155.88565728   -15334.76051582
  entropy T*S    EENTRO =         0.00000000
  eigenvalues    EBANDS =      -733.85142350
  atomic energy  EATOM  =     15300.29143124
  Solvation  Ediel_sol  =         0.00000000
  ---------------------------------------------------
  free energy    TOTEN  =       -26.66403793 eV

  energy without entropy =      -26.66403793  energy(sigma->0) =      -26.66403793


--------------------------------------------------------------------------------------------------------




----------------------------------------- Iteration    1(  30)  ---------------------------------------


    POTLOK:  cpu time    0.2916: real time    0.2917
    SETDIJ:  cpu time    0.0070: real time    0.0070
     EDDAV:  cpu time    1.2907: real time    1.2922
       DOS:  cpu time    0.0001: real time    0.0001
    CHARGE:  cpu time    0.0572: real time    0.0572
    MIXING:  cpu time    0.0296: real time    0.0297
    --------------------------------------------
      LOOP:  cpu time    1.6795: real time    1.6837

 eigenvalue-minimisations  :   528
 total energy-change (2. order) :-0.1667249E-02  (-0.7682403E-05)
 number of electron     120.9999890 magnetization       0.9960363
 augmentation part       77.7195915 magnetization       0.0436105

 Broyden mixing:
  rms(total) = 0.83091E-03    rms(broyden)= 0.83072E-03
  rms(prec ) = 0.11358E-02
  weight for this iteration     100.00

 eigenvalues of (default mixing * dielectric matrix)
  average eigenvalue GAMMA=   1.4267
  7.9409  4.8627  3.5672  2.1599  2.1599  1.3831  1.3831  1.2812  1.2812  0.8061
  0.8061  0.8135  0.8135  0.8272  0.6379  0.6379  0.3183  0.6063  0.6063  0.3913
  0.5088  0.4912  0.4912  0.4462  0.4462

 Free energy of the ion-electron system (eV)
  ---------------------------------------------------
  alpha Z        PSCENC =        13.05042259
  Ewald energy   TEWEN  =     15756.09699548
  -Hartree energ DENC   =    -29669.05130882
  -exchange      EXHF   =         0.00000000
  -V(xc)+E(xc)   XCENC  =       486.05481733
  PAW double counting   =     14155.94515400   -15334.81928556
  entropy T*S    EENTRO =         0.00000000
  eigenvalues    EBANDS =      -734.23393144
  atomic energy  EATOM  =     15300.29143124
  Solvation  Ediel_sol  =         0.00000000
  ---------------------------------------------------
  free energy    TOTEN  =       -26.66570518 eV

  energy without entropy =      -26.66570518  energy(sigma->0) =      -26.66570518


--------------------------------------------------------------------------------------------------------




----------------------------------------- Iteration    1(  31)  ---------------------------------------


    POTLOK:  cpu time    0.2904: real time    0.2906
    SETDIJ:  cpu time    0.0068: real time    0.0068
     EDDAV:  cpu time    1.2159: real time    1.2168
       DOS:  cpu time    0.0001: real time    0.0001
    CHARGE:  cpu time    0.0571: real time    0.0574
    MIXING:  cpu time    0.0322: real time    0.0322
    --------------------------------------------
      LOOP:  cpu time    1.6059: real time    1.6100

 eigenvalue-minimisations  :   488
 total energy-change (2. order) :-0.6226023E-03  (-0.2607698E-05)
 number of electron     120.9999890 magnetization       0.9945845
 augmentation part       77.7191425 magnetization       0.0428717

 Broyden mixing:
  rms(total) = 0.44121E-03    rms(broyden)= 0.44099E-03
  rms(prec ) = 0.68879E-03
  weight for this iteration     100.00

 eigenvalues of (default mixing * dielectric matrix)
  average eigenvalue GAMMA=   1.4634
  7.9711  5.1808  4.1283  2.3318  2.3318  1.4033  1.4033  1.2997  1.2007  1.2007
  0.8062  0.8062  0.8632  0.8632  0.6390  0.6390  0.6546  0.6546  0.3183  0.5488
  0.5488  0.3914  0.4847  0.4847  0.4467  0.4467

 Free energy of the ion-electron system (eV)
  ---------------------------------------------------
  alpha Z        PSCENC =        13.05042259
  Ewald energy   TEWEN  =     15756.09699548
  -Hartree energ DENC   =    -29668.91750682
  -exchange      EXHF   =         0.00000000
  -V(xc)+E(xc)   XCENC  =       486.05435454
  PAW double counting   =     14156.00155061   -15334.88670026
  entropy T*S    EENTRO =         0.00000000
  eigenvalues    EBANDS =      -734.35687515
  atomic energy  EATOM  =     15300.29143124
  Solvation  Ediel_sol  =         0.00000000
  ---------------------------------------------------
  free energy    TOTEN  =       -26.66632778 eV

  energy without entropy =      -26.66632778  energy(sigma->0) =      -26.66632778


--------------------------------------------------------------------------------------------------------




----------------------------------------- Iteration    1(  32)  ---------------------------------------


    POTLOK:  cpu time    0.2899: real time    0.2901
    SETDIJ:  cpu time    0.0068: real time    0.0068
     EDDAV:  cpu time    1.1083: real time    1.1100
       DOS:  cpu time    0.0002: real time    0.0002
    CHARGE:  cpu time    0.0571: real time    0.0572
    MIXING:  cpu time    0.0342: real time    0.0342
    --------------------------------------------
      LOOP:  cpu time    1.4997: real time    1.5046

 eigenvalue-minimisations  :   432
 total energy-change (2. order) :-0.1624271E-03  (-0.1465481E-05)
 number of electron     120.9999890 magnetization       0.9971917
 augmentation part       77.7189293 magnetization       0.0457883

 Broyden mixing:
  rms(total) = 0.38661E-03    rms(broyden)= 0.38646E-03
  rms(prec ) = 0.53014E-03
  weight for this iteration     100.00

 eigenvalues of (default mixing * dielectric matrix)
  average eigenvalue GAMMA=   1.4712
  7.9477  5.8160  4.1279  2.4153  2.4153  1.5217  1.4056  1.4056  1.1660  1.1660
  0.8061  0.8061  0.8680  0.8680  0.6385  0.6385  0.7241  0.7241  0.3183  0.6147
  0.5406  0.5406  0.3914  0.4829  0.4829  0.4461  0.4461

 Free energy of the ion-electron system (eV)
  ---------------------------------------------------
  alpha Z        PSCENC =        13.05042259
  Ewald energy   TEWEN  =     15756.09699548
  -Hartree energ DENC   =    -29668.78840252
  -exchange      EXHF   =         0.00000000
[...]
     28      -5.9003      1.00000
     29      -5.8216      1.00000
     30      -5.8119      1.00000
     31      -5.7850      1.00000
     32      -5.7324      1.00000
     33      -5.7109      1.00000
     34      -5.6903      1.00000
     35      -5.6339      1.00000
     36      -5.5783      1.00000
     37      -5.5616      1.00000
     38      -5.5073      1.00000
     39      -5.4571      1.00000
     40      -5.4458      1.00000
     41      -5.4346      1.00000
     42      -5.4243      1.00000
     43      -5.3873      1.00000
     44      -5.3700      1.00000
     45      -5.3595      1.00000
     46      -5.3052      1.00000
     47      -5.2832      1.00000
     48      -5.2670      1.00000
     49      -5.2550      1.00000
     50      -5.2304      1.00000
     51      -5.2052      1.00000
     52      -5.1452      1.00000
     53      -5.1311      1.00000
     54      -5.0954      1.00000
     55      -5.0685      1.00000
     56      -5.0656      1.00000
     57      -5.0131      1.00000
     58      -4.9703      1.00000
     59      -4.8789      1.00000
     60      -4.1500      1.00000
     61      -3.5384      0.00000
     62      -3.4661      0.00000
     63      -2.8337      0.00000
     64      -2.6252      0.00000
     65      -2.5999      0.00000
     66      -1.9900      0.00000
     67      -1.3934      0.00000
     68      -1.2046      0.00000
     69      -0.9687      0.00000
     70      -0.7919      0.00000
     71      -0.7118      0.00000
     72      -0.3694      0.00000
     73      -0.3094      0.00000
     74      -0.0611      0.00000
     75       0.1265      0.00000
     76       0.1936      0.00000
     77       0.3596      0.00000
     78       0.4316      0.00000
     79       0.4542      0.00000
     80       0.5757      0.00000
     81       0.6212      0.00000
     82       0.6546      0.00000
     83       0.6973      0.00000
     84       0.7309      0.00000
     85       0.8065      0.00000
     86       0.8499      0.00000
     87       0.9086      0.00000
     88       0.9107      0.00000
     89       0.9344      0.00000
     90       0.9425      0.00000
     91       0.9627      0.00000
     92       1.0351      0.00000


--------------------------------------------------------------------------------------------------------


 soft charge-density along one line, spin component           1
         0         1         2         3         4         5         6         7         8         9
 total charge-density along one line
 
 soft charge-density along one line, spin component           2
         0         1         2         3         4         5         6         7         8         9
 total charge-density along one line
 
 pseudopotential strength for first ion, spin component:           1
-10.680  -0.003   0.016  -0.014  -0.004   1.137   0.002  -0.014
 -0.003 -10.685  -0.005  -0.006   0.021   0.002   1.141   0.004
  0.016  -0.005 -10.681  -0.006  -0.003  -0.014   0.004   1.139
 -0.014  -0.006  -0.006 -10.691  -0.010   0.010   0.006   0.005
 -0.004   0.021  -0.003  -0.010 -10.676   0.002  -0.015   0.002
  1.137   0.002  -0.014   0.010   0.002   6.214  -0.001   0.011
  0.002   1.141   0.004   0.006  -0.015  -0.001   6.209  -0.003
 -0.014   0.004   1.139   0.005   0.002   0.011  -0.003   6.210
  0.010   0.006   0.005   1.146   0.007  -0.008  -0.005  -0.003
  0.002  -0.015   0.002   0.007   1.134  -0.002   0.012  -0.001
  0.005   0.003   0.002   0.000  -0.000  -0.003  -0.002  -0.003
  0.010   0.006   0.004   0.001  -0.000  -0.006  -0.004  -0.006
  0.016   0.008   0.009  -0.000   0.013  -0.010  -0.007  -0.007
 -0.000  -0.013   0.008   0.015  -0.001  -0.000   0.011  -0.006
 -0.015  -0.000  -0.010   0.006   0.017   0.011  -0.000   0.007
  0.017   0.010   0.010  -0.000   0.016  -0.010  -0.009  -0.008
 -0.000  -0.015   0.009   0.016  -0.001  -0.000   0.013  -0.007
 -0.017  -0.000  -0.011   0.008   0.019   0.013  -0.000   0.007
 pseudopotential strength for first ion, spin component:           2
-10.677  -0.004   0.017  -0.014  -0.003   1.134   0.002  -0.014
 -0.004 -10.679  -0.009  -0.013   0.018   0.002   1.136   0.007
  0.017  -0.009 -10.672   0.001   0.001  -0.014   0.007   1.132
 -0.014  -0.013   0.001 -10.676  -0.003   0.011   0.011  -0.002
 -0.003   0.018   0.001  -0.003 -10.668   0.002  -0.013  -0.001
  1.134   0.002  -0.014   0.011   0.002   6.215  -0.000   0.011
  0.002   1.136   0.007   0.011  -0.013  -0.000   6.212  -0.006
 -0.014   0.007   1.132  -0.002  -0.001   0.011  -0.006   6.214
  0.011   0.011  -0.002   1.133   0.001  -0.008  -0.009   0.002
  0.002  -0.013  -0.001   0.001   1.127  -0.001   0.010   0.000
  0.006   0.004   0.001  -0.002  -0.001  -0.003  -0.003  -0.003
  0.012   0.006   0.002  -0.004  -0.001  -0.006  -0.006  -0.005
  0.017   0.008   0.009   0.000   0.015  -0.011  -0.006  -0.007
  0.000  -0.014   0.010   0.018  -0.000  -0.001   0.012  -0.007
 -0.015   0.000  -0.010   0.007   0.018   0.012  -0.001   0.007
  0.018   0.009   0.011   0.000   0.018  -0.011  -0.006  -0.009
  0.000  -0.017   0.012   0.019  -0.000  -0.001   0.015  -0.008
 -0.018   0.000  -0.011   0.009   0.020   0.015  -0.001   0.006
 total augmentation occupancy for first ion, spin component:           1
  1.949   0.004   0.012  -0.001  -0.002  -0.009  -0.002  -0.007  -0.001   0.004  -0.020  -0.008  -0.061  -0.007   0.009   0.026
  0.004   1.942  -0.004  -0.007   0.009  -0.001  -0.012  -0.003  -0.000  -0.004   0.006   0.004   0.002   0.038   0.008   0.007
  0.012  -0.004   1.947   0.004  -0.001  -0.007  -0.003  -0.020   0.000   0.002  -0.011   0.001  -0.001  -0.009   0.022   0.008
 -0.001  -0.007   0.004   1.940   0.002  -0.001  -0.000   0.000  -0.011   0.002   0.010   0.005  -0.012  -0.069  -0.021   0.001
 -0.002   0.009  -0.001   0.002   1.960   0.004  -0.004   0.002   0.002  -0.016  -0.001   0.002  -0.035  -0.010  -0.035   0.016
 -0.009  -0.001  -0.007  -0.001   0.004   0.011  -0.001   0.000   0.000   0.001   0.018   0.002  -0.016  -0.004   0.008   0.001
 -0.002  -0.012  -0.003  -0.000  -0.004  -0.001   0.010  -0.001  -0.002   0.002  -0.007   0.001  -0.008   0.021  -0.008   0.000
 -0.007  -0.003  -0.020   0.000   0.002   0.000  -0.001   0.007   0.001   0.001  -0.014   0.003  -0.008  -0.006   0.006   0.000
 -0.001  -0.000   0.000  -0.011   0.002   0.000  -0.002   0.001   0.010   0.001   0.001  -0.001  -0.003  -0.024  -0.004   0.000
  0.004  -0.004   0.002   0.002  -0.016   0.001   0.002   0.001   0.001   0.012  -0.007  -0.000  -0.026   0.002  -0.023   0.001
 -0.020   0.006  -0.011   0.010  -0.001   0.018  -0.007  -0.014   0.001  -0.007   1.629  -0.116   0.138  -0.051  -0.214  -0.018
 -0.008   0.004   0.001   0.005   0.002   0.002   0.001   0.003  -0.001  -0.000  -0.116   0.012  -0.019   0.004   0.024   0.002
 -0.061   0.002  -0.001  -0.012  -0.035  -0.016  -0.008  -0.008  -0.003  -0.026   0.138  -0.019   0.131  -0.010   0.026  -0.009
 -0.007   0.038  -0.009  -0.069  -0.010  -0.004   0.021  -0.006  -0.024   0.002  -0.051   0.004  -0.010   0.120  -0.017   0.001
  0.009   0.008   0.022  -0.021  -0.035   0.008  -0.008   0.006  -0.004  -0.023  -0.214   0.024   0.026  -0.017   0.126   0.000
  0.026   0.007   0.008   0.001   0.016   0.001   0.000   0.000   0.000   0.001  -0.018   0.002  -0.009   0.001   0.000   0.001
  0.001  -0.016   0.009   0.028  -0.000   0.000  -0.001   0.000   0.001  -0.000   0.006  -0.000   0.001  -0.007  -0.000  -0.000
 -0.013   0.001  -0.013   0.007   0.026  -0.000   0.000  -0.000   0.000   0.001   0.027  -0.003   0.000  -0.000  -0.009  -0.000
 total augmentation occupancy for first ion, spin component:           2
 -0.000  -0.001   0.001   0.000   0.000   0.001   0.000  -0.000   0.000  -0.000  -0.001  -0.001   0.000   0.001  -0.001   0.000
 -0.001   0.001  -0.003  -0.004  -0.002   0.000   0.001   0.001   0.001   0.000   0.006   0.001  -0.004  -0.006  -0.000  -0.000
  0.001  -0.003   0.002   0.004   0.002  -0.000   0.001   0.000  -0.001  -0.001  -0.004  -0.001   0.003   0.006   0.001   0.000
  0.000  -0.004   0.004   0.005   0.004   0.000   0.001  -0.001  -0.001  -0.001  -0.009  -0.001   0.005   0.010  -0.000   0.000
  0.000  -0.002   0.002   0.004   0.002  -0.000   0.000  -0.001  -0.001  -0.000  -0.004  -0.001   0.003   0.006   0.001   0.000
  0.001   0.000  -0.000   0.000  -0.000  -0.000   0.000   0.000  -0.000  -0.000   0.000  -0.000  -0.000  -0.000  -0.000  -0.000
  0.000   0.001   0.001   0.001   0.000   0.000   0.000  -0.000  -0.000  -0.000  -0.000  -0.000   0.001   0.001   0.000   0.000
 -0.000   0.001   0.000  -0.001  -0.001   0.000  -0.000   0.000   0.000   0.000   0.002   0.000  -0.001  -0.002  -0.000  -0.000
  0.000   0.001  -0.001  -0.001  -0.001  -0.000  -0.000   0.000   0.000   0.000   0.002   0.000  -0.001  -0.003  -0.000  -0.000
 -0.000   0.000  -0.001  -0.001  -0.000  -0.000  -0.000   0.000   0.000   0.000   0.001   0.000  -0.001  -0.002  -0.000  -0.000
 -0.001   0.006  -0.004  -0.009  -0.004   0.000  -0.000   0.002   0.002   0.001   0.012  -0.000  -0.007  -0.016  -0.001  -0.000
 -0.001   0.001  -0.001  -0.001  -0.001  -0.000  -0.000   0.000   0.000   0.000  -0.000   0.000  -0.000  -0.001  -0.000  -0.000
  0.000  -0.004   0.003   0.005   0.003  -0.000   0.001  -0.001  -0.001  -0.001  -0.007  -0.000   0.003   0.008   0.001   0.000
  0.001  -0.006   0.006   0.010   0.006  -0.000   0.001  -0.002  -0.003  -0.002  -0.016  -0.001   0.008   0.017   0.002   0.000
 -0.001  -0.000   0.001  -0.000   0.001  -0.000   0.000  -0.000  -0.000  -0.000  -0.001  -0.000   0.001   0.002   0.000  -0.000
  0.000  -0.000   0.000   0.000   0.000  -0.000   0.000  -0.000  -0.000  -0.000  -0.000  -0.000   0.000   0.000  -0.000   0.000
  0.000  -0.000   0.000   0.001   0.000   0.000  -0.000   0.000   0.000   0.000   0.000  -0.000  -0.000  -0.000  -0.000   0.000
 -0.000   0.000   0.000  -0.000   0.000   0.000   0.000   0.000   0.000   0.000   0.000  -0.000  -0.000  -0.000  -0.000   0.000


------------------------ aborting loop because EDIFF is reached ----------------------------------------


 


 total charge     
 
# of ion     s       p       d       tot
----------------------------------------
  1        0.445   0.202   9.270   9.916
  2        0.445   0.283   9.220   9.947
  3        0.442   0.228   9.269   9.938
  4        0.434   0.165   9.303   9.902
  5        0.446   0.157   9.295   9.899
  6        0.477   0.183   9.246   9.907
  7        0.504   0.129   9.251   9.884
  8        0.453   0.263   9.227   9.943
  9        0.492   0.105   9.286   9.883
 10        0.443   0.226   9.261   9.931
 11        0.442   0.224   9.258   9.924
------------------------------------------------
tot        5.023   2.166 101.886 109.075
 


 magnetization (x)
 
# of ion     s       p       d       tot
----------------------------------------
  1        0.004   0.013   0.009   0.026
  2        0.001  -0.002   0.046   0.045
  3        0.001   0.020   0.003   0.024
  4        0.005   0.007   0.011   0.023
  5        0.004   0.016   0.013   0.033
  6        0.026   0.018   0.003   0.047
  7       -0.002   0.015   0.029   0.042
  8        0.056   0.007   0.003   0.066
  9        0.061   0.001  -0.004   0.059
 10        0.037   0.006   0.002   0.045
 11       -0.001   0.002   0.022   0.023
------------------------------------------------
tot        0.191   0.104   0.136   0.431
 
    CHARGE:  cpu time    0.0564: real time    0.0564
    FORLOC:  cpu time    0.0119: real time    0.0119
    FORNL :  cpu time    0.5884: real time    0.5889
    STRESS:  cpu time    0.5198: real time    0.5202
    FORCOR:  cpu time    0.2929: real time    0.2932
    FORHAR:  cpu time    0.0404: real time    0.0404
    MIXING:  cpu time    0.0500: real time    0.0501
    OFIELD:  cpu time    0.0001: real time    0.0001

  FORCE on cell =-STRESS in cart. coord.  units (eV):
  Direction    XX          YY          ZZ          XY          YZ          ZX
  --------------------------------------------------------------------------------------
  Alpha Z    13.05042    13.05042    13.05042
  Ewald    7039.86714  4357.46843  4358.75361  1967.34884  -458.04066 -1264.25569
  Hartree 11510.23629  9082.73198  9075.68028  1767.44532  -396.19061 -1145.85582
  E(xc)    -705.40173  -705.96548  -705.92389     0.39542    -0.09295    -0.29036
  Local  -19618.31681-14506.69762-14501.46013 -3735.28286   852.34676  2412.61959
  n-local  -265.15486  -267.76974  -267.41370     1.14777    -0.14565    -1.53664
  augment  1030.02849  1030.88468  1030.97614    -0.64208     0.94629    -0.18586
  Kinetic   992.72750   993.29499   993.28363    -0.46703     1.18780    -0.52100
  Fock        0.00000     0.00000     0.00000     0.00000     0.00000     0.00000
  -------------------------------------------------------------------------------------
  Total      -2.96355    -3.00233    -3.05364    -0.05462     0.01099    -0.02578
  in kB      -0.70025    -0.70941    -0.72153    -0.01291     0.00260    -0.00609
  external pressure =       -0.71 kB  Pullay stress =        0.00 kB


 VOLUME and BASIS-vectors are now :
 -----------------------------------------------------------------------------
  energy-cutoff  :      295.45
  volume of cell :     6780.68
      direct lattice vectors                 reciprocal lattice vectors
    18.927402000  0.000000000  0.000000000     0.052833453  0.000000000  0.000000000
     0.000000000 18.927402000  0.000000000     0.000000000  0.052833453  0.000000000
     0.000000000  0.000000000 18.927402000     0.000000000  0.000000000  0.052833453

  length of vectors
    18.927402000 18.927402000 18.927402000     0.052833453  0.052833453  0.052833453


 FORCES acting on ions
    electron-ion (+dipol)            ewald-force                    non-local-force                 convergence-correction
 -----------------------------------------------------------------------------------------------
   -.109E+04 0.668E+03 -.163E+03   0.108E+04 -.665E+03 0.161E+03   0.711E+01 -.329E+01 0.169E+01   -.153E-03 0.646E-04 0.155E-03
   0.725E+03 -.716E+03 -.462E+02   -.721E+03 0.716E+03 0.461E+02   -.360E+01 -.654E+00 0.705E-01   -.101E-03 -.389E-03 0.201E-04
   -.147E+03 0.122E+04 0.309E+03   0.147E+03 -.122E+04 -.308E+03   0.618E+00 -.686E+01 -.114E+01   -.113E-03 0.258E-03 0.133E-03
   0.104E+03 -.122E+04 0.403E+03   -.102E+03 0.121E+04 -.398E+03   -.171E+01 0.961E+01 -.447E+01   0.346E-04 -.689E-04 -.147E-03
   0.789E+03 0.179E+03 0.102E+04   -.782E+03 -.179E+03 -.101E+04   -.649E+01 0.616E+00 -.885E+01   0.913E-05 -.422E-05 0.383E-03
   0.992E+03 0.749E+03 -.151E+03   -.987E+03 -.745E+03 0.150E+03   -.455E+01 -.428E+01 0.120E+01   0.154E-03 0.146E-03 -.909E-04
   -.110E+04 -.478E+03 0.393E+03   0.109E+04 0.475E+03 -.391E+03   0.787E+01 0.353E+01 -.241E+01   -.662E-04 -.299E-04 0.190E-03
   -.263E+03 0.192E+02 0.114E+04   0.262E+03 -.199E+02 -.113E+04   0.107E+01 0.610E+00 -.295E+01   -.300E-03 -.123E-03 0.224E-03
   0.750E+03 -.236E+03 -.925E+03   -.745E+03 0.231E+03 0.917E+03   -.474E+01 0.533E+01 0.827E+01   0.178E-03 -.163E-03 -.253E-03
   -.536E+03 -.697E+03 -.888E+03   0.533E+03 0.694E+03 0.883E+03   0.338E+01 0.302E+01 0.459E+01   0.109E-03 -.283E-03 -.490E-04
   -.227E+03 0.510E+03 -.109E+04   0.227E+03 -.505E+03 0.109E+04   -.504E+00 -.476E+01 0.559E+01   -.205E-03 -.516E-05 -.235E-03
 -----------------------------------------------------------------------------------------------
   0.158E+01 -.284E+01 -.160E+01   -.512E-12 0.341E-12 -.227E-12   -.155E+01 0.286E+01 0.159E+01   -.454E-03 -.597E-03 0.332E-03
 
 
 POSITION                                       TOTAL-FORCE (eV/Angst)
 -----------------------------------------------------------------------------------
     11.51152      8.63896      9.55897         0.012758     -0.004059     -0.010938
      8.41535     10.15482      9.61472        -0.013905      0.013414      0.004176
      9.43268      7.56486      8.97617         0.009701     -0.014269      0.001099
      9.91564     11.83401      8.60962        -0.004714      0.009366     -0.003646
      7.83317      8.77453      7.71862         0.009247     -0.000168      0.005199
      7.23557      7.95405      9.93449         0.008568     -0.005619      0.007335
     12.15980     10.78107      8.51270        -0.002457      0.003078     -0.002796
     10.14836      9.60300      7.83264        -0.007230      0.004595      0.015140
      7.29628      9.49743     11.70991         0.001792      0.000960      0.010779
     10.67186     10.65646     10.49258        -0.008286      0.000408     -0.018759
      9.48048      8.64153     11.14030        -0.005475     -0.007706     -0.007590
 -----------------------------------------------------------------------------------
    total drift:                                0.028035      0.015407     -0.011481


--------------------------------------------------------------------------------------------------------



  FREE ENERGIE OF THE ION-ELECTRON SYSTEM (eV)
  ---------------------------------------------------
  free  energy   TOTEN  =       -26.66676512 eV

  energy  without entropy=      -26.66676512  energy(sigma->0) =      -26.66676512
 


--------------------------------------------------------------------------------------------------------


    POTLOK:  cpu time    0.3036: real time    0.3037


--------------------------------------------------------------------------------------------------------




--------------------------------------------------------------------------------------------------------


  
 reached required accuracy - stopping structural energy minimisation
     LOOP+:  cpu time   64.2554: real time   64.5469
    4ORBIT:  cpu time    0.0000: real time    0.0000
 


 total charge     
 
# of ion     s       p       d       tot
----------------------------------------
  1        0.445   0.202   9.270   9.916
  2        0.445   0.283   9.220   9.947
  3        0.442   0.228   9.269   9.938
  4        0.434   0.165   9.303   9.902
  5        0.446   0.157   9.295   9.899
  6        0.477   0.183   9.246   9.907
  7        0.504   0.129   9.251   9.884
  8        0.453   0.263   9.227   9.943
  9        0.492   0.105   9.286   9.883
 10        0.443   0.226   9.261   9.931
 11        0.442   0.224   9.258   9.924
------------------------------------------------
tot        5.023   2.166 101.886 109.075
 


 magnetization (x)
 
# of ion     s       p       d       tot
----------------------------------------
  1        0.004   0.013   0.009   0.026
  2        0.001  -0.002   0.046   0.045
  3        0.001   0.020   0.003   0.024
  4        0.005   0.007   0.011   0.023
  5        0.004   0.016   0.013   0.033
  6        0.026   0.018   0.003   0.047
  7       -0.002   0.015   0.029   0.042
  8        0.056   0.007   0.003   0.066
  9        0.061   0.001  -0.004   0.059
 10        0.037   0.006   0.002   0.045
 11       -0.001   0.002   0.022   0.023
------------------------------------------------
tot        0.191   0.104   0.136   0.431
 

 total amount of memory used by VASP on root node    65134. kBytes
========================================================================

   base      :      30000. kBytes
   nonl-proj :       2087. kBytes
   fftplans  :       7971. kBytes
   grid      :      20231. kBytes
   one-center:         31. kBytes
   wavefun   :       4814. kBytes
 
  
  
 General timing and accounting informations for this job:
 ========================================================
  
                  Total CPU time used (sec):       66.184
                            User time (sec):       64.479
                          System time (sec):        1.705
                         Elapsed time (sec):       67.273
  
                   Maximum memory used (kb):      109536.
                   Average memory used (kb):           0.
  
                          Minor page faults:       258758
                          Major page faults:            0
                 Voluntary context switches:         1523
