 vasp.5.4.1 05Feb16 (build Apr 11 2020 03:28:46) gamma-only                     
  
 executed on           IFC91_ompi date 2022.06.03  13:05:32
 running on   24 total cores
 distrk:  each k-point on   24 cores,    1 groups
 distr:  one band on NCORES_PER_BAND=   6 cores,    4 groups


--------------------------------------------------------------------------------------------------------


 INCAR:
 POTCAR:    PAW_PBE Cu 22Jun2005                  
 POTCAR:    PAW_PBE Cu 22Jun2005                  
   VRHFIN =Cu: d10 p1                                                           
   LEXCH  = PE                                                                  
   EATOM  =  1390.9808 eV,  102.2342 Ry                                         
                                                                                
   TITEL  = PAW_PBE Cu 22Jun2005                                                
   LULTRA =        F    use ultrasoft PP ?                                      
   IUNSCR =        1    unscreen: 0-lin 1-nonlin 2-no                           
   RPACOR =    2.000    partial core radius                                     
   POMASS =   63.546; ZVAL   =   11.000    mass and valenz                      
   RCORE  =    2.300    outmost cutoff radius                                   
   RWIGS  =    2.200; RWIGS  =    1.164    wigner-seitz radius (au A)           
   ENMAX  =  295.446; ENMIN  =  221.585 eV                                      
   ICORE  =        3    local potential                                         
   LCOR   =        T    correct aug charges                                     
   LPAW   =        T    paw PP                                                  
   EAUG   =  586.980                                                            
   DEXC   =    0.000                                                            
   RMAX   =    2.344    core radius for proj-oper                               
   RAUG   =    1.300    factor for augmentation sphere                          
   RDEP   =    2.302    radius for radial grids                                 
   RDEPT  =    1.771    core radius for aug-charge                              
                                                                                
   Atomic configuration                                                         
    9 entries                                                                   
     n  l   j            E        occ.                                          
     1  0  0.50     -8850.2468   2.0000                                         
     2  0  0.50     -1062.3498   2.0000                                         
     2  1  1.50      -916.8226   6.0000                                         
     3  0  0.50      -114.6929   2.0000                                         
     3  1  1.50       -72.1325   6.0000                                         
     3  2  2.50        -5.0394  10.0000                                         
     4  0  0.50        -4.6097   1.0000                                         
     4  1  0.50        -4.0817   0.0000                                         
     4  3  2.50        -1.3606   0.0000                                         
   Description                                                                  
     l       E           TYP  RCUT    TYP  RCUT                                 
     2     -5.0393973     23  2.200                                             
     2     10.8846608     23  2.200                                             
     0     -4.6097109     23  2.200                                             
     0      8.2520465     23  2.200                                             
     1     -2.7211652     23  2.200                                             
     1     21.7055443     23  2.200                                             
     3      2.7211652     23  2.300                                             
  local pseudopotential read in
  partial core-charges read in
  partial kinetic energy density read in
  atomic valenz-charges read in
  non local Contribution for L=           2  read in
    real space projection operators read in
  non local Contribution for L=           2  read in
    real space projection operators read in
  non local Contribution for L=           0  read in
    real space projection operators read in
  non local Contribution for L=           0  read in
    real space projection operators read in
  non local Contribution for L=           1  read in
    real space projection operators read in
  non local Contribution for L=           1  read in
    real space projection operators read in
    PAW grid and wavefunctions read in
 
   number of l-projection  operators is LMAX  =           6
   number of lm-projection operators is LMMAX =          18
 
  PAW_PBE Cu 22Jun2005                  :
 energy of atom  1       EATOM=-1390.9808
 kinetic energy error for atom=    0.0452 (will be added to EATOM!!)
 
 
 POSCAR: Unknown Structure <s> Cu </s>           
  positions in direct lattice
  velocities in cartesian coordinates
 exchange correlation table for  LEXCH =        8
   RHO(1)=    0.500       N(1)  =     2000
   RHO(2)=  100.500       N(2)  =     4000
 


--------------------------------------------------------------------------------------------------------


 ion  position               nearest neighbor table
   1  0.292  0.225  0.266-   8 2.39   5 2.41   3 2.42   2 2.43
   2  0.357  0.274  0.261-   7 2.36   4 2.40   1 2.43   5 2.44   3 2.64
   3  0.283  0.286  0.214-   4 2.36   1 2.42   8 2.43   7 2.44   2 2.64
   4  0.350  0.326  0.201-   3 2.36   2 2.40   7 2.48
   5  0.316  0.265  0.331-   9 2.36   1 2.41   2 2.44  10 2.47   6 2.48   8 2.60   7 2.76
   6  0.311  0.286  0.411-  10 2.36   9 2.40   5 2.48
   7  0.311  0.336  0.273-   2 2.36  11 2.41   9 2.42   3 2.44   4 2.48   8 2.53   5 2.76
   8  0.245  0.285  0.286-   1 2.39  11 2.39  10 2.42   3 2.43   7 2.53   5 2.60
   9  0.317  0.341  0.353-   5 2.36   6 2.40   7 2.42  11 2.44  10 2.54
  10  0.247  0.295  0.366-   6 2.36   8 2.42  11 2.43   5 2.47   9 2.54
  11  0.247  0.359  0.316-   8 2.39   7 2.41  10 2.43   9 2.44
 

IMPORTANT INFORMATION: All symmetrisations will be switched off!
NOSYMM: (Re-)initialisation of all symmetry stuff for point group C_1.

 
 
 KPOINTS: Gamma-point only                        
  k-points in reciprocal lattice
Space group operators:
 irot       det(A)        alpha          n_x          n_y          n_z        tau_x        tau_y        tau_z
    1     1.000000     0.000000     1.000000     0.000000     0.000000     0.000000     0.000000     0.000000


--------------------------------------------------------------------------------------------------------




 Dimension of arrays:
   k-points           NKPTS =      1   k-points in BZ     NKDIM =      1   number of bands    NBANDS=     92
   number of dos      NEDOS =    301   number of ions     NIONS =     11
   non local maximal  LDIM  =      6   non local SUM 2l+1 LMDIM =     18
   total plane-waves  NPLWV = ******
   max r-space proj   IRMAX =      1   max aug-charges    IRDMAX=   2345
   dimension x,y,z NGX =   126 NGY =  126 NGZ =  126
   dimension x,y,z NGXF=   252 NGYF=  252 NGZF=  252
   support grid    NGXF=   252 NGYF=  252 NGZF=  252
   ions per type =              11
 NGX,Y,Z   is equivalent  to a cutoff of   6.98,  6.98,  6.98 a.u.
 NGXF,Y,Z  is equivalent  to a cutoff of  13.96, 13.96, 13.96 a.u.


 I would recommend the setting:
   dimension x,y,z NGX =   126 NGY =  126 NGZ =  126
 SYSTEM =  unknown system                          
 POSCAR =  Unknown Structure <s> Cu </s>           

 Startparameter for this run:
   NWRITE =      2    write-flag & timer
   PREC   = normal    normal or accurate (medium, high low for compatibility)
   ISTART =      0    job   : 0-new  1-cont  2-samecut
   ICHARG =      2    charge: 1-file 2-atom 10-const
   ISPIN  =      2    spin polarized calculation?
   LNONCOLLINEAR =      F non collinear calculations
   LSORBIT =      F    spin-orbit coupling
   INIWAV =      1    electr: 0-lowe 1-rand  2-diag
   LASPH  =      F    aspherical Exc in radial PAW
   METAGGA=      F    non-selfconsistent MetaGGA calc.

 Electronic Relaxation 1
   ENCUT  =  295.4 eV  21.71 Ry    4.66 a.u.  42.05 42.05 42.05*2*pi/ulx,y,z
   ENINI  =  295.4     initial cutoff
   ENAUG  =  587.0 eV  augmentation charge cutoff
   NELM   =     60;   NELMIN=  2; NELMDL=  0     # of ELM steps 
   EDIFF  = 0.1E-05   stopping-criterion for ELM
   LREAL  =      F    real-space projection
   NLSPLINE    = F    spline interpolate recip. space projectors
   LCOMPAT=      F    compatible to vasp.4.4
   GGA_COMPAT  = T    GGA compatible to vasp.4.4-vasp.4.6
   LMAXPAW     = -100 max onsite density
   LMAXMIX     =    2 max onsite mixed and CHGCAR
   VOSKOWN=      0    Vosko Wilk Nusair interpolation
   ROPT   =    0.00000
 Ionic relaxation
   EDIFFG = -.3E-01   stopping-criterion for IOM
   NSW    =   1000    number of steps for IOM
   NBLOCK =      1;   KBLOCK =   1000    inner block; outer block 
   IBRION =      2    ionic relax: 0-MD 1-quasi-New 2-CG
   NFREE  =      1    steps in history (QN), initial steepest desc. (CG)
   ISIF   =      2    stress and relaxation
   IWAVPR =     11    prediction:  0-non 1-charg 2-wave 3-comb
   ISYM   =      0    0-nonsym 1-usesym 2-fastsym
   LCORR  =      T    Harris-Foulkes like correction to forces

   POTIM  = 0.5000    time-step for ionic-motion
   TEIN   =    0.0    initial temperature
   TEBEG  =    0.0;   TEEND  =   0.0 temperature during run
   SMASS  =  -3.00    Nose mass-parameter (am)
   estimated Nose-frequenzy (Omega)   =  0.10E-29 period in steps =****** mass=  -0.206E-25a.u.
   SCALEE = 1.0000    scale energy and forces
   NPACO  =    256;   APACO  = 16.0  distance and # of slots for P.C.
   PSTRESS=    0.0 pullay stress

  Mass of Ions in am
   POMASS =  63.55
  Ionic Valenz
   ZVAL   =  11.00
  Atomic Wigner-Seitz radii
   RWIGS  =  -1.00
  virtual crystal weights 
   VCA    =   1.00
   NELECT =     121.0000    total number of electrons
   NUPDOWN=      -1.0000    fix difference up-down

 DOS related values:
   EMIN   =  10.00;   EMAX   =-10.00  energy-range for DOS
   EFERMI =   0.00
   ISMEAR =     0;   SIGMA  =   0.00  broadening in eV -4-tet -1-fermi 0-gaus

 Electronic relaxation 2 (details)
   IALGO  =     38    algorithm
   LDIAG  =      T    sub-space diagonalisation (order eigenvalues)
   LSUBROT=      F    optimize rotation matrix (better conditioning)
   TURBO    =      0    0=normal 1=particle mesh
   IRESTART =      0    0=no restart 2=restart with 2 vectors
   NREBOOT  =      0    no. of reboots
   NMIN     =      0    reboot dimension
   EREF     =   0.00    reference energy to select bands
   IMIX   =      4    mixing-type and parameters
     AMIX     =   0.40;   BMIX     =  1.00
     AMIX_MAG =   1.60;   BMIX_MAG =  1.00
     AMIN     =   0.10
     WC   =   100.;   INIMIX=   1;  MIXPRE=   1;  MAXMIX= -45

 Intra band minimization:
   WEIMIN = 0.0010     energy-eigenvalue tresh-hold
   EBREAK =  0.27E-08  absolut break condition
   DEPER  =   0.30     relativ break condition  

   TIME   =   0.40     timestep for ELM

  volume/ion in A,a.u.               =    2454.55     16564.09
  Fermi-wavevector in a.u.,A,eV,Ry     =   0.269908  0.510052  0.991187  0.072850
  Thomas-Fermi vector in A             =   1.107801
 
 Write flags
   LWAVE  =      F    write WAVECAR
   LCHARG =      F    write CHGCAR
   LVTOT  =      F    write LOCPOT, total local potential
   LVHAR  =      F    write LOCPOT, Hartree potential only
   LELF   =      F    write electronic localiz. function (ELF)
   LORBIT =     11    0 simple, 1 ext, 2 COOP (PROOUT)


 Dipole corrections
   LMONO  =      F    monopole corrections only (constant potential shift)
   LDIPOL =      F    correct potential (dipole corrections)
   IDIPOL =      0    1-x, 2-y, 3-z, 4-all directions 
   EPSILON=  1.0000000 bulk dielectric constant

 Exchange correlation treatment:
   GGA     =    PE    GGA type
   LEXCH   =     8    internal setting for exchange type
   VOSKOWN=      0    Vosko Wilk Nusair interpolation
   LHFCALC =     F    Hartree Fock is set to
   LHFONE  =     F    Hartree Fock one center treatment
   AEXX    =    0.0000 exact exchange contribution

 Linear response parameters
   LEPSILON=     F    determine dielectric tensor
   LRPA    =     F    only Hartree local field effects (RPA)
   LNABLA  =     F    use nabla operator in PAW spheres
   LVEL    =     F    velocity operator in full k-point grid
   LINTERFAST=   F  fast interpolation
   KINTER  =     0    interpolate to denser k-point grid
   CSHIFT  =0.1000    complex shift for real part using Kramers Kronig
   OMEGAMAX=  -1.0    maximum frequency
   DEG_THRESHOLD= 0.2000000E-02 threshold for treating states as degnerate
   RTIME   =    0.100 relaxation time in fs

 Orbital magnetization related:
   ORBITALMAG=     F  switch on orbital magnetization
   LCHIMAG   =     F  perturbation theory with respect to B field
   DQ        =  0.001000  dq finite difference perturbation B field



--------------------------------------------------------------------------------------------------------


 conjugate gradient relaxation of ions
 charge density and potential will be updated during run
 spin polarized calculation
 Variant of blocked Davidson
 Davidson routine will perform the subspace rotation
 perform sub-space diagonalisation
    after iterative eigenvector-optimisation
 modified Broyden-mixing scheme, WC =      100.0
 initial mixing is a Kerker type mixing with AMIX =  0.4000 and BMIX =      1.0000
 Hartree-type preconditioning will be used
 using additional bands           31
 reciprocal scheme for non local part
 use partial core corrections
 calculate Harris-corrections to forces 
   (improved forces if not selfconsistent)
 use gradient corrections 
 use of overlap-Matrix (Vanderbilt PP)
 Gauss-broadening in eV      SIGMA  =   0.00


--------------------------------------------------------------------------------------------------------


  energy-cutoff  :      295.45
  volume of cell :    27000.00
      direct lattice vectors                 reciprocal lattice vectors
    30.000000000  0.000000000  0.000000000     0.033333333  0.000000000  0.000000000
     0.000000000 30.000000000  0.000000000     0.000000000  0.033333333  0.000000000
     0.000000000  0.000000000 30.000000000     0.000000000  0.000000000  0.033333333

  length of vectors
    30.000000000 30.000000000 30.000000000     0.033333333  0.033333333  0.033333333


 
 k-points in units of 2pi/SCALE and weight: Gamma-point only                        
   0.00000000  0.00000000  0.00000000       1.000
 
 k-points in reciprocal lattice and weights: Gamma-point only                        
   0.00000000  0.00000000  0.00000000       1.000
 
 position of ions in fractional coordinates (direct lattice) 
   0.29234340  0.22474579  0.26586390
   0.35663516  0.27355203  0.26145486
   0.28317889  0.28630184  0.21448037
   0.35009067  0.32573927  0.20107700
   0.31571317  0.26529989  0.33108995
   0.31116191  0.28597578  0.41106586
   0.31059168  0.33613325  0.27278874
   0.24452719  0.28532615  0.28571079
   0.31702314  0.34091435  0.35304981
   0.24722067  0.29504280  0.36587167
   0.24697558  0.35893641  0.31619394
 
 position of ions in cartesian coordinates  (Angst):
   8.77030209  6.74237360  7.97591689
  10.69905474  8.20656077  7.84364568
   8.49536674  8.58905508  6.43441108
  10.50272021  9.77217816  6.03230998
   9.47139523  7.95899656  9.93269851
   9.33485717  8.57927344 12.33197592
   9.31775045 10.08399761  8.18366232
   7.33581558  8.55978447  8.57132361
   9.51069425 10.22743056 10.59149439
   7.41662017  8.85128395 10.97615025
   7.40926753 10.76809215  9.48581822
 


--------------------------------------------------------------------------------------------------------


 use parallel FFT for wavefunctions z direction half grid
 k-point  1 :   0.0000 0.0000 0.0000  plane waves:  155509

 maximum and minimum number of plane-waves per node :     25930    25903

 maximum number of plane-waves:    155509
 maximum index in each direction: 
   IXMAX=   42   IYMAX=   42   IZMAX=   42
   IXMIN=  -42   IYMIN=  -42   IZMIN=    0

 WARNING: aliasing errors must be expected set NGX to 170 to avoid them
 WARNING: aliasing errors must be expected set NGY to 170 to avoid them
 WARNING: aliasing errors must be expected set NGZ to 170 to avoid them
 aliasing errors are usually negligible using standard VASP settings
 and one can safely disregard these warnings

 parallel 3D FFT for wavefunctions:
    minimum data exchange during FFTs selected (reduces bandwidth)
 parallel 3D FFT for charge:
    minimum data exchange during FFTs selected (reduces bandwidth)


 total amount of memory used by VASP on root node   165356. kBytes
========================================================================

   base      :      30000. kBytes
   nonl-proj :       8289. kBytes
   fftplans  :      30597. kBytes
   grid      :      77361. kBytes
   one-center:         31. kBytes
   wavefun   :      19078. kBytes
 
     INWAV:  cpu time    0.0000: real time    0.0000
 Broyden mixing: mesh for mixing (old mesh)
   NGX = 85   NGY = 85   NGZ = 85
  (NGX  =252   NGY  =252   NGZ  =252)
  gives a total of 614125 points

 initial charge density was supplied:
 charge density of overlapping atoms calculated
 number of electron     121.0000000 magnetization      33.0000000
 keeping initial charge density in first step


--------------------------------------------------------------------------------------------------------


 Maximum index for augmentation-charges          192 (set IRDMAX)


--------------------------------------------------------------------------------------------------------


 First call to EWALD:  gamma=   0.059
 Maximum number of real-space cells 3x 3x 3
 Maximum number of reciprocal cells 3x 3x 3

 FEWALD executed in parallel
    FEWALD:  cpu time    0.0019: real time    0.0019


----------------------------------------- Iteration    1(   1)  ---------------------------------------


    POTLOK:  cpu time    1.3846: real time    1.3885
    SETDIJ:  cpu time    0.0149: real time    0.0150
     EDDAV:  cpu time    8.8979: real time    8.9104
       DOS:  cpu time    0.0001: real time    0.0001
    --------------------------------------------
      LOOP:  cpu time   10.3009: real time   10.3369

 eigenvalue-minimisations  :   400
 total energy-change (2. order) : 0.7442773E+03  (-0.1424687E+04)
 number of electron     121.0000000 magnetization      33.0000000
 augmentation part      121.0000000 magnetization      33.0000000

 Free energy of the ion-electron system (eV)
  ---------------------------------------------------
  alpha Z        PSCENC =         3.27743305
  Ewald energy   TEWEN  =     20797.62857091
  -Hartree energ DENC   =    -34715.86916204
  -exchange      EXHF   =         0.00000000
  -V(xc)+E(xc)   XCENC  =       503.78034854
  PAW double counting   =     13499.38897783   -14661.85464542
  entropy T*S    EENTRO =         0.00000000
  eigenvalues    EBANDS =        17.63429900
  atomic energy  EATOM  =     15300.29143124
  Solvation  Ediel_sol  =         0.00000000
  ---------------------------------------------------
  free energy    TOTEN  =       744.27725311 eV

  energy without entropy =      744.27725311  energy(sigma->0) =      744.27725311


--------------------------------------------------------------------------------------------------------




----------------------------------------- Iteration    1(   2)  ---------------------------------------


     EDDAV:  cpu time   14.1938: real time   14.2175
       DOS:  cpu time    0.0001: real time    0.0001
    --------------------------------------------
      LOOP:  cpu time   14.1964: real time   14.2231

 eigenvalue-minimisations  :   696
 total energy-change (2. order) :-0.4800526E+03  (-0.3985856E+03)
 number of electron     121.0000000 magnetization      33.0000000
 augmentation part      121.0000000 magnetization      33.0000000

 Free energy of the ion-electron system (eV)
  ---------------------------------------------------
  alpha Z        PSCENC =         3.27743305
  Ewald energy   TEWEN  =     20797.62857091
  -Hartree energ DENC   =    -34715.86916204
  -exchange      EXHF   =         0.00000000
  -V(xc)+E(xc)   XCENC  =       503.78034854
  PAW double counting   =     13499.38897783   -14661.85464542
  entropy T*S    EENTRO =         0.00000000
  eigenvalues    EBANDS =      -462.41829530
  atomic energy  EATOM  =     15300.29143124
  Solvation  Ediel_sol  =         0.00000000
  ---------------------------------------------------
  free energy    TOTEN  =       264.22465881 eV

  energy without entropy =      264.22465881  energy(sigma->0) =      264.22465881


--------------------------------------------------------------------------------------------------------




----------------------------------------- Iteration    1(   3)  ---------------------------------------


     EDDAV:  cpu time   10.9712: real time   10.9908
       DOS:  cpu time    0.0001: real time    0.0001
    --------------------------------------------
      LOOP:  cpu time   10.9739: real time   11.0080

 eigenvalue-minimisations  :   512
 total energy-change (2. order) :-0.2376079E+03  (-0.2230481E+03)
 number of electron     121.0000000 magnetization      33.0000000
 augmentation part      121.0000000 magnetization      33.0000000

 Free energy of the ion-electron system (eV)
  ---------------------------------------------------
  alpha Z        PSCENC =         3.27743305
  Ewald energy   TEWEN  =     20797.62857091
  -Hartree energ DENC   =    -34715.86916204
  -exchange      EXHF   =         0.00000000
  -V(xc)+E(xc)   XCENC  =       503.78034854
  PAW double counting   =     13499.38897783   -14661.85464542
  entropy T*S    EENTRO =         0.00000000
  eigenvalues    EBANDS =      -700.02615244
  atomic energy  EATOM  =     15300.29143124
  Solvation  Ediel_sol  =         0.00000000
  ---------------------------------------------------
  free energy    TOTEN  =        26.61680167 eV

  energy without entropy =       26.61680167  energy(sigma->0) =       26.61680167


--------------------------------------------------------------------------------------------------------




----------------------------------------- Iteration    1(   4)  ---------------------------------------


     EDDAV:  cpu time   11.2567: real time   11.2711
       DOS:  cpu time    0.0001: real time    0.0001
    --------------------------------------------
      LOOP:  cpu time   11.2592: real time   11.2763

 eigenvalue-minimisations  :   528
 total energy-change (2. order) :-0.3992515E+02  (-0.3641515E+02)
 number of electron     121.0000000 magnetization      33.0000000
 augmentation part      121.0000000 magnetization      33.0000000

 Free energy of the ion-electron system (eV)
  ---------------------------------------------------
  alpha Z        PSCENC =         3.27743305
  Ewald energy   TEWEN  =     20797.62857091
  -Hartree energ DENC   =    -34715.86916204
  -exchange      EXHF   =         0.00000000
  -V(xc)+E(xc)   XCENC  =       503.78034854
  PAW double counting   =     13499.38897783   -14661.85464542
  entropy T*S    EENTRO =        -0.00000000
  eigenvalues    EBANDS =      -739.95130047
  atomic energy  EATOM  =     15300.29143124
  Solvation  Ediel_sol  =         0.00000000
  ---------------------------------------------------
  free energy    TOTEN  =       -13.30834637 eV

  energy without entropy =      -13.30834637  energy(sigma->0) =      -13.30834637


--------------------------------------------------------------------------------------------------------




----------------------------------------- Iteration    1(   5)  ---------------------------------------


     EDDAV:  cpu time   10.5407: real time   10.5586
       DOS:  cpu time    0.0001: real time    0.0001
    CHARGE:  cpu time    0.4969: real time    0.4977
    MIXING:  cpu time    0.0275: real time    0.0276
    --------------------------------------------
      LOOP:  cpu time   11.0682: real time   11.0900

 eigenvalue-minimisations  :   488
 total energy-change (2. order) :-0.2260287E+01  (-0.2035833E+01)
 number of electron     120.9999739 magnetization      31.2518999
 augmentation part       72.0433332 magnetization      29.5690878

 Broyden mixing:
  rms(total) = 0.58340E+01    rms(broyden)= 0.58328E+01
  rms(prec ) = 0.58653E+01
  weight for this iteration     100.00

 Free energy of the ion-electron system (eV)
  ---------------------------------------------------
  alpha Z        PSCENC =         3.27743305
  Ewald energy   TEWEN  =     20797.62857091
  -Hartree energ DENC   =    -34715.86916204
  -exchange      EXHF   =         0.00000000
  -V(xc)+E(xc)   XCENC  =       503.78034854
  PAW double counting   =     13499.38897783   -14661.85464542
  entropy T*S    EENTRO =         0.00000000
  eigenvalues    EBANDS =      -742.21158790
  atomic energy  EATOM  =     15300.29143124
  Solvation  Ediel_sol  =         0.00000000
  ---------------------------------------------------
  free energy    TOTEN  =       -15.56863379 eV

  energy without entropy =      -15.56863379  energy(sigma->0) =      -15.56863379


--------------------------------------------------------------------------------------------------------




----------------------------------------- Iteration    1(   6)  ---------------------------------------


    POTLOK:  cpu time    1.3804: real time    1.3831
    SETDIJ:  cpu time    0.0162: real time    0.0162
     EDDAV:  cpu time    9.4615: real time    9.4807
       DOS:  cpu time    0.0001: real time    0.0001
    CHARGE:  cpu time    0.4897: real time    0.4903
    MIXING:  cpu time    0.0299: real time    0.0299
    --------------------------------------------
      LOOP:  cpu time   11.3808: real time   11.4061

 eigenvalue-minimisations  :   428
 total energy-change (2. order) : 0.9335357E+02  (-0.5375497E+02)
 number of electron     120.9999699 magnetization      29.9342719
 augmentation part       83.1767956 magnetization      20.2651143

 Broyden mixing:
  rms(total) = 0.25103E+01    rms(broyden)= 0.25083E+01
  rms(prec ) = 0.25695E+01
  weight for this iteration     100.00

 eigenvalues of (default mixing * dielectric matrix)
  average eigenvalue GAMMA=   0.9342
  0.9342

 Free energy of the ion-electron system (eV)
  ---------------------------------------------------
  alpha Z        PSCENC =         3.27743305
  Ewald energy   TEWEN  =     20797.62857091
  -Hartree energ DENC   =    -34419.77037347
  -exchange      EXHF   =         0.00000000
  -V(xc)+E(xc)   XCENC  =       558.59879265
  PAW double counting   =     13492.11335177   -14601.72156923
  entropy T*S    EENTRO =         0.00000000
  eigenvalues    EBANDS =     -1052.63269994
  atomic energy  EATOM  =     15300.29143124
  Solvation  Ediel_sol  =         0.00000000
  ---------------------------------------------------
  free energy    TOTEN  =        77.78493698 eV

  energy without entropy =       77.78493698  energy(sigma->0) =       77.78493698


--------------------------------------------------------------------------------------------------------




----------------------------------------- Iteration    1(   7)  ---------------------------------------


    POTLOK:  cpu time    1.3719: real time    1.3794
    SETDIJ:  cpu time    0.0160: real time    0.0161
     EDDAV:  cpu time   10.2424: real time   10.2576
       DOS:  cpu time    0.0001: real time    0.0001
    CHARGE:  cpu time    0.4926: real time    0.4928
    MIXING:  cpu time    0.0327: real time    0.0329
    --------------------------------------------
      LOOP:  cpu time   12.1593: real time   12.1853

 eigenvalue-minimisations  :   472
 total energy-change (2. order) :-0.1694320E+02  (-0.2089537E+02)
 number of electron     120.9999697 magnetization      28.2463630
 augmentation part       78.4115643 magnetization      18.0217240

 Broyden mixing:
  rms(total) = 0.11131E+01    rms(broyden)= 0.11123E+01
  rms(prec ) = 0.11236E+01
  weight for this iteration     100.00

 eigenvalues of (default mixing * dielectric matrix)
  average eigenvalue GAMMA=   0.9162
  1.1424  0.6901

 Free energy of the ion-electron system (eV)
  ---------------------------------------------------
  alpha Z        PSCENC =         3.27743305
  Ewald energy   TEWEN  =     20797.62857091
  -Hartree energ DENC   =    -34676.33542343
  -exchange      EXHF   =         0.00000000
  -V(xc)+E(xc)   XCENC  =       556.01914358
  PAW double counting   =     13876.74934602   -15079.49211413
  entropy T*S    EENTRO =         0.00000000
  eigenvalues    EBANDS =      -717.29665097
  atomic energy  EATOM  =     15300.29143124
  Solvation  Ediel_sol  =         0.00000000
  ---------------------------------------------------
  free energy    TOTEN  =        60.84173627 eV

  energy without entropy =       60.84173627  energy(sigma->0) =       60.84173627


--------------------------------------------------------------------------------------------------------




----------------------------------------- Iteration    1(   8)  ---------------------------------------


    POTLOK:  cpu time    1.3947: real time    1.4016
    SETDIJ:  cpu time    0.0171: real time    0.0172
     EDDAV:  cpu time   10.7826: real time   10.8065
       DOS:  cpu time    0.0001: real time    0.0001
    CHARGE:  cpu time    0.4911: real time    0.4912
    MIXING:  cpu time    0.0344: real time    0.0344
    --------------------------------------------
      LOOP:  cpu time   12.7232: real time   12.8343

 eigenvalue-minimisations  :   504
 total energy-change (2. order) : 0.5978859E+01  (-0.2582320E+01)
 number of electron     120.9999722 magnetization      27.2217559
 augmentation part       77.6288763 magnetization      16.5796951

 Broyden mixing:
  rms(total) = 0.92945E+00    rms(broyden)= 0.92917E+00
  rms(prec ) = 0.94449E+00
  weight for this iteration     100.00

 eigenvalues of (default mixing * dielectric matrix)
  average eigenvalue GAMMA=   0.8536
  1.2388  0.6609  0.6609

 Free energy of the ion-electron system (eV)
  ---------------------------------------------------
  alpha Z        PSCENC =         3.27743305
  Ewald energy   TEWEN  =     20797.62857091
  -Hartree energ DENC   =    -34726.65807543
  -exchange      EXHF   =         0.00000000
  -V(xc)+E(xc)   XCENC  =       560.73181034
  PAW double counting   =     14133.02311141   -15338.75833186
  entropy T*S    EENTRO =         0.00000000
  eigenvalues    EBANDS =      -662.71535430
  atomic energy  EATOM  =     15300.29143124
  Solvation  Ediel_sol  =         0.00000000
  ---------------------------------------------------
  free energy    TOTEN  =        66.82059537 eV

  energy without entropy =       66.82059537  energy(sigma->0) =       66.82059537


--------------------------------------------------------------------------------------------------------




----------------------------------------- Iteration    1(   9)  ---------------------------------------


    POTLOK:  cpu time    1.3778: real time    1.3792
    SETDIJ:  cpu time    0.0151: real time    0.0151
     EDDAV:  cpu time   10.5150: real time   10.5276
       DOS:  cpu time    0.0001: real time    0.0001
    CHARGE:  cpu time    0.4809: real time    0.4893
    MIXING:  cpu time    0.0375: real time    0.0375
    --------------------------------------------
      LOOP:  cpu time   12.4301: real time   12.4554

 eigenvalue-minimisations  :   488
 total energy-change (2. order) :-0.8616445E+01  (-0.5632211E+00)
 number of electron     120.9999706 magnetization      25.1786941
 augmentation part       77.7657213 magnetization      14.7529862

 Broyden mixing:
  rms(total) = 0.63273E+00    rms(broyden)= 0.63255E+00
  rms(prec ) = 0.63625E+00
  weight for this iteration     100.00

 eigenvalues of (default mixing * dielectric matrix)
  average eigenvalue GAMMA=   0.9005
  1.1967  1.1967  0.7265  0.4820

 Free energy of the ion-electron system (eV)
  ---------------------------------------------------
  alpha Z        PSCENC =         3.27743305
  Ewald energy   TEWEN  =     20797.62857091
  -Hartree energ DENC   =    -34719.88929635
  -exchange      EXHF   =         0.00000000
  -V(xc)+E(xc)   XCENC  =       553.29499416
  PAW double counting   =     14186.61978423   -15385.59895917
  entropy T*S    EENTRO =         0.00000000
  eigenvalues    EBANDS =      -677.41980730
  atomic energy  EATOM  =     15300.29143124
  Solvation  Ediel_sol  =         0.00000000
  ---------------------------------------------------
  free energy    TOTEN  =        58.20415077 eV

  energy without entropy =       58.20415077  energy(sigma->0) =       58.20415077


--------------------------------------------------------------------------------------------------------




----------------------------------------- Iteration    1(  10)  ---------------------------------------


    POTLOK:  cpu time    1.3792: real time    1.3816
    SETDIJ:  cpu time    0.0158: real time    0.0158
     EDDAV:  cpu time   10.5829: real time   10.5964
       DOS:  cpu time    0.0001: real time    0.0001
    CHARGE:  cpu time    0.4894: real time    0.4895
    MIXING:  cpu time    0.0411: real time    0.0411
    --------------------------------------------
      LOOP:  cpu time   12.5121: real time   12.5310

 eigenvalue-minimisations  :   492
 total energy-change (2. order) :-0.2273888E+02  (-0.1245193E+01)
 number of electron     120.9999708 magnetization      23.2861323
 augmentation part       78.1585804 magnetization      13.7537390

 Broyden mixing:
  rms(total) = 0.50852E+00    rms(broyden)= 0.50842E+00
  rms(prec ) = 0.51228E+00
  weight for this iteration     100.00

 eigenvalues of (default mixing * dielectric matrix)
  average eigenvalue GAMMA=   1.0367
  1.7030  1.7030  0.6371  0.6371  0.5030

 Free energy of the ion-electron system (eV)
  ---------------------------------------------------
  alpha Z        PSCENC =         3.27743305
  Ewald energy   TEWEN  =     20797.62857091
  -Hartree energ DENC   =    -34701.05428558
  -exchange      EXHF   =         0.00000000
  -V(xc)+E(xc)   XCENC  =       534.55775339
  PAW double counting   =     14220.12495722   -15404.37512488
  entropy T*S    EENTRO =         0.00000000
  eigenvalues    EBANDS =      -714.98546027
  atomic energy  EATOM  =     15300.29143124
  Solvation  Ediel_sol  =         0.00000000
  ---------------------------------------------------
  free energy    TOTEN  =        35.46527508 eV

  energy without entropy =       35.46527508  energy(sigma->0) =       35.46527508


--------------------------------------------------------------------------------------------------------




----------------------------------------- Iteration    1(  11)  ---------------------------------------


    POTLOK:  cpu time    1.3747: real time    1.3763
    SETDIJ:  cpu time    0.0158: real time    0.0158
     EDDAV:  cpu time   10.2481: real time   10.2681
       DOS:  cpu time    0.0001: real time    0.0001
    CHARGE:  cpu time    0.4991: real time    0.4995
    MIXING:  cpu time    0.0462: real time    0.0464
    --------------------------------------------
      LOOP:  cpu time   12.1875: real time   12.2126

 eigenvalue-minimisations  :   472
 total energy-change (2. order) :-0.1677056E+02  (-0.1001269E+01)
 number of electron     120.9999713 magnetization      21.8979568
 augmentation part       78.2380952 magnetization      14.9226892

 Broyden mixing:
  rms(total) = 0.45664E+00    rms(broyden)= 0.45588E+00
  rms(prec ) = 0.46275E+00
  weight for this iteration     100.00

 eigenvalues of (default mixing * dielectric matrix)
  average eigenvalue GAMMA=   0.9535
  1.8031  1.8031  0.6117  0.6117  0.5068  0.3845

 Free energy of the ion-electron system (eV)
  ---------------------------------------------------
  alpha Z        PSCENC =         3.27743305
  Ewald energy   TEWEN  =     20797.62857091
  -Hartree energ DENC   =    -34694.78800711
  -exchange      EXHF   =         0.00000000
  -V(xc)+E(xc)   XCENC  =       521.12551978
  PAW double counting   =     14225.05125057   -15401.90017544
  entropy T*S    EENTRO =         0.00000000
  eigenvalues    EBANDS =      -731.99130384
  atomic energy  EATOM  =     15300.29143124
  Solvation  Ediel_sol  =         0.00000000
  ---------------------------------------------------
  free energy    TOTEN  =        18.69471915 eV

  energy without entropy =       18.69471915  energy(sigma->0) =       18.69471915


--------------------------------------------------------------------------------------------------------




----------------------------------------- Iteration    1(  12)  ---------------------------------------


    POTLOK:  cpu time    1.3851: real time    1.3861
    SETDIJ:  cpu time    0.0162: real time    0.0162
     EDDAV:  cpu time   10.9931: real time   11.0213
       DOS:  cpu time    0.0001: real time    0.0001
    CHARGE:  cpu time    0.4913: real time    0.4916
    MIXING:  cpu time    0.0495: real time    0.0496
    --------------------------------------------
      LOOP:  cpu time   12.9383: real time   12.9694

 eigenvalue-minimisations  :   516
 total energy-change (2. order) :-0.5788813E+01  (-0.4141441E+00)
 number of electron     120.9999716 magnetization      21.5564292
 augmentation part       78.2080780 magnetization      16.6863488

 Broyden mixing:
  rms(total) = 0.47885E+00    rms(broyden)= 0.47793E+00
  rms(prec ) = 0.48504E+00
  weight for this iteration     100.00

 eigenvalues of (default mixing * dielectric matrix)
  average eigenvalue GAMMA=   0.8260
  1.8087  1.8087  0.6032  0.6032  0.5109  0.3590  0.0884

 Free energy of the ion-electron system (eV)
  ---------------------------------------------------
  alpha Z        PSCENC =         3.27743305
  Ewald energy   TEWEN  =     20797.62857091
  -Hartree energ DENC   =    -34707.33932360
  -exchange      EXHF   =         0.00000000
  -V(xc)+E(xc)   XCENC  =       517.43101216
  PAW double counting   =     14258.15375955   -15434.99850211
  entropy T*S    EENTRO =         0.00000000
  eigenvalues    EBANDS =      -721.53847459
  atomic energy  EATOM  =     15300.29143124
  Solvation  Ediel_sol  =         0.00000000
  ---------------------------------------------------
  free energy    TOTEN  =        12.90590661 eV

  energy without entropy =       12.90590661  energy(sigma->0) =       12.90590661


--------------------------------------------------------------------------------------------------------




----------------------------------------- Iteration    1(  13)  ---------------------------------------


    POTLOK:  cpu time    1.3672: real time    1.3767
    SETDIJ:  cpu time    0.0153: real time    0.0153
     EDDAV:  cpu time    9.4701: real time    9.4880
       DOS:  cpu time    0.0001: real time    0.0001
    CHARGE:  cpu time    0.4945: real time    0.4952
    MIXING:  cpu time    0.0542: real time    0.0542
    --------------------------------------------
      LOOP:  cpu time   11.4050: real time   11.4360

 eigenvalue-minimisations  :   428
 total energy-change (2. order) : 0.2179709E+00  (-0.7708884E-01)
 number of electron     120.9999716 magnetization      20.6790935
 augmentation part       78.1237600 magnetization      15.9765584

 Broyden mixing:
  rms(total) = 0.43962E+00    rms(broyden)= 0.43956E+00
  rms(prec ) = 0.44515E+00
  weight for this iteration     100.00

 eigenvalues of (default mixing * dielectric matrix)
  average eigenvalue GAMMA=   0.8305
  1.8655  1.8655  0.4219  0.4219  0.5902  0.5902  0.5287  0.3604

 Free energy of the ion-electron system (eV)
  ---------------------------------------------------
  alpha Z        PSCENC =         3.27743305
  Ewald energy   TEWEN  =     20797.62857091
  -Hartree energ DENC   =    -34712.20581432
  -exchange      EXHF   =         0.00000000
  -V(xc)+E(xc)   XCENC  =       518.22491829
  PAW double counting   =     14269.15988359   -15446.29494604
  entropy T*S    EENTRO =         0.00000000
  eigenvalues    EBANDS =      -716.95759918
  atomic energy  EATOM  =     15300.29143124
  Solvation  Ediel_sol  =         0.00000000
  ---------------------------------------------------
  free energy    TOTEN  =        13.12387754 eV

  energy without entropy =       13.12387754  energy(sigma->0) =       13.12387754


--------------------------------------------------------------------------------------------------------




----------------------------------------- Iteration    1(  14)  ---------------------------------------


    POTLOK:  cpu time    1.3774: real time    1.3789
    SETDIJ:  cpu time    0.0157: real time    0.0157
     EDDAV:  cpu time   10.2670: real time   10.2840
       DOS:  cpu time    0.0002: real time    0.0002
    CHARGE:  cpu time    0.4944: real time    0.4969
    MIXING:  cpu time    0.0593: real time    0.0594
    --------------------------------------------
      LOOP:  cpu time   12.2175: real time   12.2417

 eigenvalue-minimisations  :   472
 total energy-change (2. order) :-0.4569289E+01  (-0.1655523E+00)
 number of electron     120.9999716 magnetization      15.9761253
 augmentation part       78.0824399 magnetization      11.5548826

 Broyden mixing:
  rms(total) = 0.38621E+00    rms(broyden)= 0.38620E+00
  rms(prec ) = 0.39125E+00
  weight for this iteration     100.00

 eigenvalues of (default mixing * dielectric matrix)
  average eigenvalue GAMMA=   1.1150
  3.8516  1.8450  0.7714  0.7714  0.7264  0.7264  0.5088  0.5088  0.3253

 Free energy of the ion-electron system (eV)
  ---------------------------------------------------
  alpha Z        PSCENC =         3.27743305
  Ewald energy   TEWEN  =     20797.62857091
  -Hartree energ DENC   =    -34715.18601942
  -exchange      EXHF   =         0.00000000
  -V(xc)+E(xc)   XCENC  =       514.99338012
  PAW double counting   =     14264.80497209   -15441.26315959
  entropy T*S    EENTRO =         0.00000000
  eigenvalues    EBANDS =      -715.99201993
  atomic energy  EATOM  =     15300.29143124
  Solvation  Ediel_sol  =         0.00000000
  ---------------------------------------------------
  free energy    TOTEN  =         8.55458847 eV

  energy without entropy =        8.55458847  energy(sigma->0) =        8.55458847


--------------------------------------------------------------------------------------------------------




----------------------------------------- Iteration    1(  15)  ---------------------------------------


    POTLOK:  cpu time    1.3818: real time    1.3827
    SETDIJ:  cpu time    0.0155: real time    0.0155
     EDDAV:  cpu time   11.1506: real time   11.1637
       DOS:  cpu time    0.0002: real time    0.0002
    CHARGE:  cpu time    0.4901: real time    0.4902
    MIXING:  cpu time    0.0653: real time    0.0654
    --------------------------------------------
      LOOP:  cpu time   13.1074: real time   13.1244

 eigenvalue-minimisations  :   524
 total energy-change (2. order) :-0.1887877E+02  (-0.1604863E+01)
 number of electron     120.9999716 magnetization      14.2982173
 augmentation part       77.8943877 magnetization      12.4990275

 Broyden mixing:
  rms(total) = 0.41198E+00    rms(broyden)= 0.41123E+00
  rms(prec ) = 0.41623E+00
  weight for this iteration     100.00

 eigenvalues of (default mixing * dielectric matrix)
  average eigenvalue GAMMA=   1.0956
  4.5682  1.3293  1.3293  0.6696  0.6696  0.6625  0.5168  0.5168  0.3647  0.3291

 Free energy of the ion-electron system (eV)
  ---------------------------------------------------
  alpha Z        PSCENC =         3.27743305
  Ewald energy   TEWEN  =     20797.62857091
  -Hartree energ DENC   =    -34733.55150622
  -exchange      EXHF   =         0.00000000
  -V(xc)+E(xc)   XCENC  =       499.98243868
  PAW double counting   =     14239.81366538   -15416.61048541
  entropy T*S    EENTRO =         0.00000000
  eigenvalues    EBANDS =      -701.15572585
  atomic energy  EATOM  =     15300.29143124
  Solvation  Ediel_sol  =         0.00000000
  ---------------------------------------------------
  free energy    TOTEN  =       -10.32417822 eV

  energy without entropy =      -10.32417822  energy(sigma->0) =      -10.32417822


--------------------------------------------------------------------------------------------------------




----------------------------------------- Iteration    1(  16)  ---------------------------------------


    POTLOK:  cpu time    1.7257: real time    1.7544
    SETDIJ:  cpu time    0.0158: real time    0.0158
     EDDAV:  cpu time   11.4033: real time   11.4177
       DOS:  cpu time    0.0001: real time    0.0001
    CHARGE:  cpu time    0.4908: real time    0.4914
    MIXING:  cpu time    0.0711: real time    0.0711
    --------------------------------------------
      LOOP:  cpu time   13.7103: real time   13.7571

 eigenvalue-minimisations  :   540
 total energy-change (2. order) :-0.2539069E+01  (-0.2735834E+00)
 number of electron     120.9999718 magnetization      12.6789114
 augmentation part       77.5017668 magnetization      11.2384488

 Broyden mixing:
  rms(total) = 0.27304E+00    rms(broyden)= 0.27295E+00
  rms(prec ) = 0.27917E+00
  weight for this iteration     100.00

 eigenvalues of (default mixing * dielectric matrix)
  average eigenvalue GAMMA=   1.1600
  5.3264  1.7813  0.7793  0.7793  0.7711  0.7711  0.6486  0.6486  0.4689  0.4689
  0.3161

 Free energy of the ion-electron system (eV)
  ---------------------------------------------------
  alpha Z        PSCENC =         3.27743305
  Ewald energy   TEWEN  =     20797.62857091
  -Hartree energ DENC   =    -34751.41594807
  -exchange      EXHF   =         0.00000000
  -V(xc)+E(xc)   XCENC  =       498.81853756
  PAW double counting   =     14272.67464044   -15452.12537363
  entropy T*S    EENTRO =         0.00000000
  eigenvalues    EBANDS =      -682.01253847
  atomic energy  EATOM  =     15300.29143124
  Solvation  Ediel_sol  =         0.00000000
  ---------------------------------------------------
  free energy    TOTEN  =       -12.86324696 eV

  energy without entropy =      -12.86324696  energy(sigma->0) =      -12.86324696


--------------------------------------------------------------------------------------------------------




----------------------------------------- Iteration    1(  17)  ---------------------------------------


    POTLOK:  cpu time    1.3793: real time    1.3803
    SETDIJ:  cpu time    0.0158: real time    0.0158
     EDDAV:  cpu time   10.5985: real time   10.6286
       DOS:  cpu time    0.0001: real time    0.0001
    CHARGE:  cpu time    0.4937: real time    0.4941
    MIXING:  cpu time    0.0861: real time    0.0863
    --------------------------------------------
      LOOP:  cpu time   12.5772: real time   12.6114

 eigenvalue-minimisations  :   492
 total energy-change (2. order) :-0.4261153E+01  (-0.2084479E+00)
 number of electron     120.9999716 magnetization      11.2902713
 augmentation part       77.7201088 magnetization      10.1608414

 Broyden mixing:
  rms(total) = 0.21330E+00    rms(broyden)= 0.21327E+00
  rms(prec ) = 0.21679E+00
  weight for this iteration     100.00

 eigenvalues of (default mixing * dielectric matrix)
  average eigenvalue GAMMA=   1.2183
  5.8219  1.8928  1.0275  1.0275  0.8833  0.8833  0.6408  0.6408  0.5644  0.5152
  0.3990  0.3226

 Free energy of the ion-electron system (eV)
  ---------------------------------------------------
  alpha Z        PSCENC =         3.27743305
  Ewald energy   TEWEN  =     20797.62857091
  -Hartree energ DENC   =    -34737.33204247
  -exchange      EXHF   =         0.00000000
  -V(xc)+E(xc)   XCENC  =       494.90404391
  PAW double counting   =     14230.78058583   -15407.32336551
  entropy T*S    EENTRO =         0.00000000
  eigenvalues    EBANDS =      -699.35105658
  atomic energy  EATOM  =     15300.29143124
  Solvation  Ediel_sol  =         0.00000000
  ---------------------------------------------------
  free energy    TOTEN  =       -17.12439962 eV

  energy without entropy =      -17.12439962  energy(sigma->0) =      -17.12439962


--------------------------------------------------------------------------------------------------------




----------------------------------------- Iteration    1(  18)  ---------------------------------------


    POTLOK:  cpu time    1.3867: real time    1.3891
    SETDIJ:  cpu time    0.0171: real time    0.0171
     EDDAV:  cpu time   11.3205: real time   11.3454
       DOS:  cpu time    0.0001: real time    0.0001
    CHARGE:  cpu time    0.4852: real time    0.4856
    MIXING:  cpu time    0.0856: real time    0.0857
    --------------------------------------------
      LOOP:  cpu time   13.2986: real time   13.3291

 eigenvalue-minimisations  :   536
 total energy-change (2. order) :-0.3361970E+01  (-0.1201174E+00)
 number of electron     120.9999716 magnetization       9.8100661
 augmentation part       77.6888977 magnetization       8.7589218

 Broyden mixing:
  rms(total) = 0.13551E+00    rms(broyden)= 0.13547E+00
  rms(prec ) = 0.13863E+00
  weight for this iteration     100.00

 eigenvalues of (default mixing * dielectric matrix)
  average eigenvalue GAMMA=   1.2837
  6.4559  2.3863  1.2467  1.0272  1.0272  0.6998  0.6998  0.6871  0.6871  0.5331
  0.5139  0.4035  0.3206

 Free energy of the ion-electron system (eV)
  ---------------------------------------------------
  alpha Z        PSCENC =         3.27743305
  Ewald energy   TEWEN  =     20797.62857091
  -Hartree energ DENC   =    -34728.72884899
  -exchange      EXHF   =         0.00000000
  -V(xc)+E(xc)   XCENC  =       491.95986785
  PAW double counting   =     14198.58638536   -15375.64789210
  entropy T*S    EENTRO =         0.00000000
  eigenvalues    EBANDS =      -707.85331709
  atomic energy  EATOM  =     15300.29143124
  Solvation  Ediel_sol  =         0.00000000
  ---------------------------------------------------
  free energy    TOTEN  =       -20.48636977 eV

  energy without entropy =      -20.48636977  energy(sigma->0) =      -20.48636977


--------------------------------------------------------------------------------------------------------




----------------------------------------- Iteration    1(  19)  ---------------------------------------


    POTLOK:  cpu time    1.3763: real time    1.3815
    SETDIJ:  cpu time    0.0161: real time    0.0161
     EDDAV:  cpu time   10.6194: real time   10.6408
       DOS:  cpu time    0.0001: real time    0.0001
    CHARGE:  cpu time    0.4904: real time    0.4906
    MIXING:  cpu time    0.0923: real time    0.0930
    --------------------------------------------
      LOOP:  cpu time   12.5981: real time   12.6285

 eigenvalue-minimisations  :   496
 total energy-change (2. order) :-0.1822713E+01  (-0.4945040E-01)
 number of electron     120.9999716 magnetization       7.6777650
 augmentation part       77.6629865 magnetization       6.6240591

 Broyden mixing:
  rms(total) = 0.11269E+00    rms(broyden)= 0.11267E+00
  rms(prec ) = 0.11500E+00
  weight for this iteration     100.00

 eigenvalues of (default mixing * dielectric matrix)
  average eigenvalue GAMMA=   1.3835
  7.7552  2.7091  1.3927  1.1346  1.1346  0.7548  0.7548  0.6630  0.6630  0.6961
  0.4976  0.4976  0.3943  0.3210

 Free energy of the ion-electron system (eV)
  ---------------------------------------------------
  alpha Z        PSCENC =         3.27743305
  Ewald energy   TEWEN  =     20797.62857091
  -Hartree energ DENC   =    -34720.38097579
  -exchange      EXHF   =         0.00000000
  -V(xc)+E(xc)   XCENC  =       490.32105584
  PAW double counting   =     14173.70475822   -15352.20089889
  entropy T*S    EENTRO =        -0.00000000
  eigenvalues    EBANDS =      -714.95045705
  atomic energy  EATOM  =     15300.29143124
  Solvation  Ediel_sol  =         0.00000000
  ---------------------------------------------------
  free energy    TOTEN  =       -22.30908248 eV

  energy without entropy =      -22.30908248  energy(sigma->0) =      -22.30908248


--------------------------------------------------------------------------------------------------------




----------------------------------------- Iteration    1(  20)  ---------------------------------------


    POTLOK:  cpu time    1.3825: real time    1.3844
    SETDIJ:  cpu time    0.0158: real time    0.0158
     EDDAV:  cpu time   10.8924: real time   10.9156
       DOS:  cpu time    0.0001: real time    0.0001
    CHARGE:  cpu time    0.4905: real time    0.4910
    MIXING:  cpu time    0.0994: real time    0.0995
    --------------------------------------------
      LOOP:  cpu time   12.8843: real time   12.9128

 eigenvalue-minimisations  :   512
 total energy-change (2. order) :-0.1353463E+01  (-0.3943057E-01)
 number of electron     120.9999716 magnetization       6.9791195
 augmentation part       77.7042413 magnetization       6.0204377

 Broyden mixing:
  rms(total) = 0.83216E-01    rms(broyden)= 0.83200E-01
  rms(prec ) = 0.85216E-01
  weight for this iteration     100.00

 eigenvalues of (default mixing * dielectric matrix)
  average eigenvalue GAMMA=   1.4002
  7.9402  2.9952  1.8152  1.0767  1.0767  0.8762  0.8065  0.8065  0.6712  0.6712
  0.5393  0.5056  0.5056  0.3951  0.3211

 Free energy of the ion-electron system (eV)
  ---------------------------------------------------
  alpha Z        PSCENC =         3.27743305
  Ewald energy   TEWEN  =     20797.62857091
  -Hartree energ DENC   =    -34708.92517999
  -exchange      EXHF   =         0.00000000
  -V(xc)+E(xc)   XCENC  =       488.91562413
  PAW double counting   =     14148.23404534   -15326.92231612
  entropy T*S    EENTRO =         0.00000000
  eigenvalues    EBANDS =      -726.16215382
  atomic energy  EATOM  =     15300.29143124
  Solvation  Ediel_sol  =         0.00000000
  ---------------------------------------------------
  free energy    TOTEN  =       -23.66254526 eV

  energy without entropy =      -23.66254526  energy(sigma->0) =      -23.66254526


--------------------------------------------------------------------------------------------------------




----------------------------------------- Iteration    1(  21)  ---------------------------------------


    POTLOK:  cpu time    1.3784: real time    1.3793
    SETDIJ:  cpu time    0.0160: real time    0.0160
     EDDAV:  cpu time   11.3290: real time   11.3524
       DOS:  cpu time    0.0002: real time    0.0002
    CHARGE:  cpu time    0.4809: real time    0.4825
    MIXING:  cpu time    0.1070: real time    0.1070
    --------------------------------------------
      LOOP:  cpu time   13.3154: real time   13.3440

 eigenvalue-minimisations  :   536
 total energy-change (2. order) :-0.4278750E+00  (-0.5050627E-02)
 number of electron     120.9999716 magnetization       5.9359455
 augmentation part       77.7113303 magnetization       4.9679483

 Broyden mixing:
  rms(total) = 0.56668E-01    rms(broyden)= 0.56660E-01
  rms(prec ) = 0.57820E-01
  weight for this iteration     100.00

 eigenvalues of (default mixing * dielectric matrix)
  average eigenvalue GAMMA=   1.4749
  8.5093  3.8594  1.6454  1.6454  1.1014  1.1014  0.7580  0.7580  0.6624  0.6624
  0.6417  0.3211  0.5292  0.5292  0.3950  0.4792

 Free energy of the ion-electron system (eV)
  ---------------------------------------------------
  alpha Z        PSCENC =         3.27743305
  Ewald energy   TEWEN  =     20797.62857091
  -Hartree energ DENC   =    -34703.24465977
  -exchange      EXHF   =         0.00000000
  -V(xc)+E(xc)   XCENC  =       488.46173316
  PAW double counting   =     14146.47298201   -15325.23783477
  entropy T*S    EENTRO =         0.00000000
  eigenvalues    EBANDS =      -731.74007608
  atomic energy  EATOM  =     15300.29143124
  Solvation  Ediel_sol  =         0.00000000
  ---------------------------------------------------
  free energy    TOTEN  =       -24.09042023 eV

  energy without entropy =      -24.09042023  energy(sigma->0) =      -24.09042023


--------------------------------------------------------------------------------------------------------




----------------------------------------- Iteration    1(  22)  ---------------------------------------


    POTLOK:  cpu time    1.3732: real time    1.3832
    SETDIJ:  cpu time    0.0163: real time    0.0163
     EDDAV:  cpu time   10.8062: real time   10.8349
       DOS:  cpu time    0.0001: real time    0.0001
    CHARGE:  cpu time    0.4890: real time    0.4895
    MIXING:  cpu time    0.1152: real time    0.1154
    --------------------------------------------
      LOOP:  cpu time   12.8034: real time   12.8438

 eigenvalue-minimisations  :   504
 total energy-change (2. order) :-0.5990206E+00  (-0.4686126E-02)
 number of electron     120.9999716 magnetization       4.8508054
 augmentation part       77.7489398 magnetization       3.8832764

 Broyden mixing:
  rms(total) = 0.48780E-01    rms(broyden)= 0.48772E-01
  rms(prec ) = 0.49784E-01
  weight for this iteration     100.00

 eigenvalues of (default mixing * dielectric matrix)
  average eigenvalue GAMMA=   1.5192
  9.5190  3.9085  1.8086  1.8086  1.0768  1.0768  0.8054  0.8054  0.8300  0.6787
  0.6787  0.6106  0.3211  0.5135  0.5135  0.3950  0.4760

 Free energy of the ion-electron system (eV)
  ---------------------------------------------------
  alpha Z        PSCENC =         3.27743305
  Ewald energy   TEWEN  =     20797.62857091
  -Hartree energ DENC   =    -34694.68083418
  -exchange      EXHF   =         0.00000000
  -V(xc)+E(xc)   XCENC  =       487.75834966
  PAW double counting   =     14139.79526193   -15318.21281902
  entropy T*S    EENTRO =         0.00000000
  eigenvalues    EBANDS =      -740.54683444
  atomic energy  EATOM  =     15300.29143124
  Solvation  Ediel_sol  =         0.00000000
  ---------------------------------------------------
  free energy    TOTEN  =       -24.68944086 eV

  energy without entropy =      -24.68944086  energy(sigma->0) =      -24.68944086


--------------------------------------------------------------------------------------------------------




----------------------------------------- Iteration    1(  23)  ---------------------------------------


    POTLOK:  cpu time    1.3782: real time    1.3794
    SETDIJ:  cpu time    0.0156: real time    0.0156
     EDDAV:  cpu time    9.9608: real time    9.9726
       DOS:  cpu time    0.0001: real time    0.0001
    CHARGE:  cpu time    0.4847: real time    0.4850
    MIXING:  cpu time    0.1253: real time    0.1255
    --------------------------------------------
      LOOP:  cpu time   11.9687: real time   11.9851

 eigenvalue-minimisations  :   456
 total energy-change (2. order) :-0.5324280E+00  (-0.3012391E-02)
 number of electron     120.9999716 magnetization       4.1130229
 augmentation part       77.7469364 magnetization       3.1716641

 Broyden mixing:
  rms(total) = 0.41171E-01    rms(broyden)= 0.41168E-01
  rms(prec ) = 0.41989E-01
  weight for this iteration     100.00

 eigenvalues of (default mixing * dielectric matrix)
  average eigenvalue GAMMA=   1.5333
  9.9729  3.7058  2.7641  1.3935  1.3935  1.0394  1.0394  0.7453  0.7453  0.6969
  0.6969  0.6905  0.3211  0.3953  0.5136  0.5136  0.4864  0.4864

 Free energy of the ion-electron system (eV)
  ---------------------------------------------------
  alpha Z        PSCENC =         3.27743305
  Ewald energy   TEWEN  =     20797.62857091
  -Hartree energ DENC   =    -34692.18034177
  -exchange      EXHF   =         0.00000000
  -V(xc)+E(xc)   XCENC  =       487.21368766
  PAW double counting   =     14141.25292129   -15319.81009457
  entropy T*S    EENTRO =        -0.00000000
  eigenvalues    EBANDS =      -742.89547670
  atomic energy  EATOM  =     15300.29143124
  Solvation  Ediel_sol  =         0.00000000
  ---------------------------------------------------
  free energy    TOTEN  =       -25.22186889 eV

  energy without entropy =      -25.22186889  energy(sigma->0) =      -25.22186889


--------------------------------------------------------------------------------------------------------




----------------------------------------- Iteration    1(  24)  ---------------------------------------


    POTLOK:  cpu time    1.3777: real time    1.3793
    SETDIJ:  cpu time    0.0161: real time    0.0161
     EDDAV:  cpu time   10.5786: real time   10.6009
       DOS:  cpu time    0.0001: real time    0.0001
    CHARGE:  cpu time    0.4896: real time    0.4898
    MIXING:  cpu time    0.1325: real time    0.1328
    --------------------------------------------
      LOOP:  cpu time   12.5984: real time   12.6252

 eigenvalue-minimisations  :   492
 total energy-change (2. order) :-0.2500929E+00  (-0.8773573E-03)
 number of electron     120.9999716 magnetization       3.3237221
 augmentation part       77.7142890 magnetization       2.3886789

 Broyden mixing:
  rms(total) = 0.27586E-01    rms(broyden)= 0.27585E-01
  rms(prec ) = 0.28077E-01
  weight for this iteration     100.00

 eigenvalues of (default mixing * dielectric matrix)
  average eigenvalue GAMMA=   1.5945
 10.2928  4.4352  3.0224  1.8349  1.1739  1.1739  1.0362  1.0362  0.7602  0.7602
  0.6816  0.6816  0.6778  0.3211  0.3951  0.5108  0.5108  0.5163  0.4737

 Free energy of the ion-electron system (eV)
  ---------------------------------------------------
  alpha Z        PSCENC =         3.27743305
  Ewald energy   TEWEN  =     20797.62857091
  -Hartree energ DENC   =    -34692.47429566
  -exchange      EXHF   =         0.00000000
  -V(xc)+E(xc)   XCENC  =       487.00870329
  PAW double counting   =     14148.85903852   -15327.77747401
  entropy T*S    EENTRO =         0.00000000
  eigenvalues    EBANDS =      -742.28536912
  atomic energy  EATOM  =     15300.29143124
  Solvation  Ediel_sol  =         0.00000000
  ---------------------------------------------------
  free energy    TOTEN  =       -25.47196177 eV

  energy without entropy =      -25.47196177  energy(sigma->0) =      -25.47196177


--------------------------------------------------------------------------------------------------------




----------------------------------------- Iteration    1(  25)  ---------------------------------------


    POTLOK:  cpu time    1.3771: real time    1.3791
    SETDIJ:  cpu time    0.0164: real time    0.0164
     EDDAV:  cpu time   11.2075: real time   11.2214
       DOS:  cpu time    0.0001: real time    0.0001
    CHARGE:  cpu time    0.4883: real time    0.4890
    MIXING:  cpu time    0.1424: real time    0.1425
    --------------------------------------------
      LOOP:  cpu time   13.2355: real time   13.2547

 eigenvalue-minimisations  :   528
 total energy-change (2. order) :-0.3770759E+00  (-0.7446456E-03)
 number of electron     120.9999716 magnetization       2.9016201
 augmentation part       77.6948322 magnetization       1.9557188

 Broyden mixing:
  rms(total) = 0.20941E-01    rms(broyden)= 0.20938E-01
  rms(prec ) = 0.21430E-01
  weight for this iteration     100.00

 eigenvalues of (default mixing * dielectric matrix)
  average eigenvalue GAMMA=   1.6116
 10.4425  5.2325  2.7618  2.1598  1.2076  1.1470  1.1470  1.0002  1.0002  0.7399
  0.7399  0.6665  0.6665  0.3211  0.5761  0.5334  0.5334  0.3951  0.4812  0.4812

 Free energy of the ion-electron system (eV)
  ---------------------------------------------------
  alpha Z        PSCENC =         3.27743305
  Ewald energy   TEWEN  =     20797.62857091
  -Hartree energ DENC   =    -34690.22211762
  -exchange      EXHF   =         0.00000000
  -V(xc)+E(xc)   XCENC  =       486.63670840
  PAW double counting   =     14153.49287814   -15332.47225166
  entropy T*S    EENTRO =         0.00000000
  eigenvalues    EBANDS =      -744.48169012
  atomic energy  EATOM  =     15300.29143124
  Solvation  Ediel_sol  =         0.00000000
  ---------------------------------------------------
  free energy    TOTEN  =       -25.84903766 eV

  energy without entropy =      -25.84903766  energy(sigma->0) =      -25.84903766


--------------------------------------------------------------------------------------------------------




----------------------------------------- Iteration    1(  26)  ---------------------------------------


    POTLOK:  cpu time    1.3746: real time    1.3781
    SETDIJ:  cpu time    0.0158: real time    0.0158
     EDDAV:  cpu time   10.2946: real time   10.3070
       DOS:  cpu time    0.0001: real time    0.0001
    CHARGE:  cpu time    0.4904: real time    0.4910
    MIXING:  cpu time    0.1643: real time    0.1887
    --------------------------------------------
      LOOP:  cpu time   12.3431: real time   12.3868

 eigenvalue-minimisations  :   472
 total energy-change (2. order) :-0.1963429E+00  (-0.2569832E-03)
 number of electron     120.9999716 magnetization       2.4093690
 augmentation part       77.6988931 magnetization       1.4548691

 Broyden mixing:
  rms(total) = 0.17915E-01    rms(broyden)= 0.17914E-01
  rms(prec ) = 0.18310E-01
  weight for this iteration     100.00

 eigenvalues of (default mixing * dielectric matrix)
  average eigenvalue GAMMA=   1.6567
 10.6952  5.9974  2.7299  2.7299  1.3395  1.2424  1.2424  1.0088  1.0088  0.7492
  0.7492  0.6768  0.6768  0.6584  0.3211  0.5902  0.3951  0.5129  0.5129  0.4768
  0.4768

 Free energy of the ion-electron system (eV)
  ---------------------------------------------------
  alpha Z        PSCENC =         3.27743305
  Ewald energy   TEWEN  =     20797.62857091
  -Hartree energ DENC   =    -34688.24244877
  -exchange      EXHF   =         0.00000000
  -V(xc)+E(xc)   XCENC  =       486.42335475
  PAW double counting   =     14154.26783871   -15333.17326110
  entropy T*S    EENTRO =         0.00000000
  eigenvalues    EBANDS =      -746.51829931
  atomic energy  EATOM  =     15300.29143124
  Solvation  Ediel_sol  =         0.00000000
  ---------------------------------------------------
  free energy    TOTEN  =       -26.04538051 eV

  energy without entropy =      -26.04538051  energy(sigma->0) =      -26.04538051


--------------------------------------------------------------------------------------------------------




----------------------------------------- Iteration    1(  27)  ---------------------------------------


    POTLOK:  cpu time    1.3793: real time    1.3803
    SETDIJ:  cpu time    0.0163: real time    0.0163
     EDDAV:  cpu time   10.6775: real time   10.6995
       DOS:  cpu time    0.0002: real time    0.0002
    CHARGE:  cpu time    0.4891: real time    0.4898
    MIXING:  cpu time    0.1645: real time    0.1646
    --------------------------------------------
      LOOP:  cpu time   12.7311: real time   12.7579

 eigenvalue-minimisations  :   496
 total energy-change (2. order) :-0.1976783E+00  (-0.3160785E-03)
 number of electron     120.9999716 magnetization       1.9449338
 augmentation part       77.7191368 magnetization       0.9857674

 Broyden mixing:
  rms(total) = 0.13949E-01    rms(broyden)= 0.13947E-01
  rms(prec ) = 0.14179E-01
  weight for this iteration     100.00

 eigenvalues of (default mixing * dielectric matrix)
  average eigenvalue GAMMA=   1.7067
 10.9999  6.8159  2.9406  2.9406  1.4538  1.4538  1.1519  1.1519  0.9965  0.9965
  0.7436  0.7436  0.6701  0.6701  0.3211  0.6152  0.3951  0.5259  0.5259  0.4877
  0.4877  0.4603

 Free energy of the ion-electron system (eV)
  ---------------------------------------------------
  alpha Z        PSCENC =         3.27743305
  Ewald energy   TEWEN  =     20797.62857091
  -Hartree energ DENC   =    -34685.50666408
  -exchange      EXHF   =         0.00000000
  -V(xc)+E(xc)   XCENC  =       486.18815334
  PAW double counting   =     14153.05613336   -15331.72903480
  entropy T*S    EENTRO =         0.00000000
  eigenvalues    EBANDS =      -749.44908185
  atomic energy  EATOM  =     15300.29143124
  Solvation  Ediel_sol  =         0.00000000
  ---------------------------------------------------
  free energy    TOTEN  =       -26.24305883 eV

  energy without entropy =      -26.24305883  energy(sigma->0) =      -26.24305883


--------------------------------------------------------------------------------------------------------




----------------------------------------- Iteration    1(  28)  ---------------------------------------


    POTLOK:  cpu time    1.3787: real time    1.3799
    SETDIJ:  cpu time    0.0151: real time    0.0151
     EDDAV:  cpu time   11.0982: real time   11.1207
       DOS:  cpu time    0.0002: real time    0.0002
    CHARGE:  cpu time    0.4899: real time    0.4905
    MIXING:  cpu time    0.1748: real time    0.1749
    --------------------------------------------
      LOOP:  cpu time   13.1606: real time   13.1874

 eigenvalue-minimisations  :   520
 total energy-change (2. order) :-0.1455869E+00  (-0.1230386E-03)
 number of electron     120.9999716 magnetization       1.6871340
 augmentation part       77.7260234 magnetization       0.7317151

 Broyden mixing:
  rms(total) = 0.10289E-01    rms(broyden)= 0.10288E-01
  rms(prec ) = 0.10532E-01
  weight for this iteration     100.00

 eigenvalues of (default mixing * dielectric matrix)
  average eigenvalue GAMMA=   1.7488
 11.3703  7.5858  3.1552  2.9371  1.9981  1.2777  1.2777  1.2610  0.9913  0.9913
  0.7462  0.7462  0.6767  0.6767  0.6746  0.6746  0.3211  0.3951  0.5189  0.5189
  0.4823  0.4823  0.4637

 Free energy of the ion-electron system (eV)
  ---------------------------------------------------
  alpha Z        PSCENC =         3.27743305
  Ewald energy   TEWEN  =     20797.62857091
  -Hartree energ DENC   =    -34684.40365563
  -exchange      EXHF   =         0.00000000
  -V(xc)+E(xc)   XCENC  =       486.03662324
  PAW double counting   =     14153.12065960   -15331.73910507
  entropy T*S    EENTRO =         0.00000000
  eigenvalues    EBANDS =      -750.60060302
  atomic energy  EATOM  =     15300.29143124
  Solvation  Ediel_sol  =         0.00000000
  ---------------------------------------------------
  free energy    TOTEN  =       -26.38864569 eV

  energy without entropy =      -26.38864569  energy(sigma->0) =      -26.38864569


--------------------------------------------------------------------------------------------------------




----------------------------------------- Iteration    1(  29)  ---------------------------------------


    POTLOK:  cpu time    1.3752: real time    1.3763
    SETDIJ:  cpu time    0.0148: real time    0.0148
     EDDAV:  cpu time    9.7185: real time    9.7295
       DOS:  cpu time    0.0002: real time    0.0002
    CHARGE:  cpu time    0.4815: real time    0.4826
    MIXING:  cpu time    0.1854: real time    0.1855
    --------------------------------------------
      LOOP:  cpu time   11.7798: real time   11.7957

 eigenvalue-minimisations  :   440
 total energy-change (2. order) :-0.5542490E-01  (-0.4289933E-04)
 number of electron     120.9999716 magnetization       1.4353580
 augmentation part       77.7198666 magnetization       0.4825980

 Broyden mixing:
  rms(total) = 0.70045E-02    rms(broyden)= 0.70039E-02
  rms(prec ) = 0.71747E-02
  weight for this iteration     100.00

 eigenvalues of (default mixing * dielectric matrix)
  average eigenvalue GAMMA=   1.7956
 11.9093  8.0888  3.9127  2.5089  2.5089  1.3304  1.3304  0.9997  0.9997  1.1162
  1.1162  0.7457  0.7457  0.6698  0.6698  0.3211  0.6281  0.6281  0.3951  0.5213
  0.5213  0.4842  0.4842  0.4594

 Free energy of the ion-electron system (eV)
  ---------------------------------------------------
  alpha Z        PSCENC =         3.27743305
  Ewald energy   TEWEN  =     20797.62857091
  -Hartree energ DENC   =    -34684.49081397
  -exchange      EXHF   =         0.00000000
  -V(xc)+E(xc)   XCENC  =       485.99516195
  PAW double counting   =     14153.35713978   -15332.09700130
  entropy T*S    EENTRO =         0.00000000
  eigenvalues    EBANDS =      -750.40599227
  atomic energy  EATOM  =     15300.29143124
  Solvation  Ediel_sol  =         0.00000000
  ---------------------------------------------------
  free energy    TOTEN  =       -26.44407060 eV

  energy without entropy =      -26.44407060  energy(sigma->0) =      -26.44407060


--------------------------------------------------------------------------------------------------------




----------------------------------------- Iteration    1(  30)  ---------------------------------------


    POTLOK:  cpu time    1.3716: real time    1.3800
    SETDIJ:  cpu time    0.0154: real time    0.0154
     EDDAV:  cpu time    9.8540: real time    9.8669
       DOS:  cpu time    0.0002: real time    0.0002
    CHARGE:  cpu time    0.4906: real time    0.4908
    MIXING:  cpu time    0.1907: real time    0.1908
    --------------------------------------------
      LOOP:  cpu time   11.9263: real time   11.9507

 eigenvalue-minimisations  :   448
 total energy-change (2. order) :-0.4312078E-01  (-0.5320563E-04)
 number of electron     120.9999716 magnetization       1.2706402
 augmentation part       77.7134744 magnetization       0.3218768

 Broyden mixing:
  rms(total) = 0.50164E-02    rms(broyden)= 0.50153E-02
  rms(prec ) = 0.51491E-02
  weight for this iteration     100.00

 eigenvalues of (default mixing * dielectric matrix)
  average eigenvalue GAMMA=   1.8252
 12.4083  8.4902  4.3889  2.5442  2.5442  1.5577  1.2773  1.2773  1.2546  0.9988
  0.9988  0.7476  0.7476  0.6778  0.6778  0.6736  0.6736  0.3211  0.3951  0.5175
  0.5175  0.5207  0.4797  0.4797  0.4591

 Free energy of the ion-electron system (eV)
  ---------------------------------------------------
  alpha Z        PSCENC =         3.27743305
  Ewald energy   TEWEN  =     20797.62857091
  -Hartree energ DENC   =    -34684.70117129
  -exchange      EXHF   =         0.00000000
  -V(xc)+E(xc)   XCENC  =       485.96182283
  PAW double counting   =     14153.38634762   -15332.21694568
  entropy T*S    EENTRO =         0.00000000
  eigenvalues    EBANDS =      -750.11468005
  atomic energy  EATOM  =     15300.29143124
  Solvation  Ediel_sol  =         0.00000000
  ---------------------------------------------------
  free energy    TOTEN  =       -26.48719138 eV

  energy without entropy =      -26.48719138  energy(sigma->0) =      -26.48719138


--------------------------------------------------------------------------------------------------------




----------------------------------------- Iteration    1(  31)  ---------------------------------------


    POTLOK:  cpu time    1.3781: real time    1.3795
    SETDIJ:  cpu time    0.0157: real time    0.0157
     EDDAV:  cpu time    9.9413: real time    9.9650
       DOS:  cpu time    0.0001: real time    0.0001
    CHARGE:  cpu time    0.4874: real time    0.4881
    MIXING:  cpu time    0.1973: real time    0.1983
    --------------------------------------------
      LOOP:  cpu time   12.0236: real time   12.0529

 eigenvalue-minimisations  :   452
 total energy-change (2. order) :-0.3027584E-01  (-0.2417433E-04)
 number of electron     120.9999716 magnetization       1.1788245
 augmentation part       77.7173287 magnetization       0.2323092

 Broyden mixing:
  rms(total) = 0.40594E-02    rms(broyden)= 0.40590E-02
  rms(prec ) = 0.41675E-02
  weight for this iteration     100.00

 eigenvalues of (default mixing * dielectric matrix)
  average eigenvalue GAMMA=   1.8594
 12.8487  8.9782  4.6620  2.6845  2.6845  1.7401  1.2867  1.2867  1.3437  0.9997
  0.9997  0.9946  0.7457  0.7457  0.6703  0.6703  0.6986  0.3211  0.6423  0.3951
  0.5202  0.5202  0.4924  0.4924  0.4601  0.4601

 Free energy of the ion-electron system (eV)
  ---------------------------------------------------
  alpha Z        PSCENC =         3.27743305
  Ewald energy   TEWEN  =     20797.62857091
  -Hartree energ DENC   =    -34684.57122063
  -exchange      EXHF   =         0.00000000
  -V(xc)+E(xc)   XCENC  =       485.92326638
  PAW double counting   =     14152.65568844   -15331.43931205
  entropy T*S    EENTRO =         0.00000000
  eigenvalues    EBANDS =      -750.28332456
  atomic energy  EATOM  =     15300.29143124
  Solvation  Ediel_sol  =         0.00000000
  ---------------------------------------------------
  free energy    TOTEN  =       -26.51746722 eV

  energy without entropy =      -26.51746722  energy(sigma->0) =      -26.51746722


--------------------------------------------------------------------------------------------------------




----------------------------------------- Iteration    1(  32)  ---------------------------------------


    POTLOK:  cpu time    1.3786: real time    1.3798
    SETDIJ:  cpu time    0.0146: real time    0.0146
     EDDAV:  cpu time   11.3109: real time   11.3297
       DOS:  cpu time    0.0001: real time    0.0001
    CHARGE:  cpu time    0.4884: real time    0.4890
    MIXING:  cpu time    0.2081: real time    0.2099
    --------------------------------------------
      LOOP:  cpu time   13.4041: real time   13.4292

 eigenvalue-minimisations  :   536
 total energy-change (2. order) :-0.1977252E-01  (-0.1050988E-04)
 number of electron     120.9999716 magnetization       1.1160857
 augmentation part       77.7180736 magnetization       0.1687955

 Broyden mixing:
  rms(total) = 0.28323E-02    rms(broyden)= 0.28320E-02
  rms(prec ) = 0.29063E-02
  weight for this iteration     100.00

 eigenvalues of (default mixing * dielectric matrix)
  average eigenvalue GAMMA=   1.8808
 13.2735  9.1490  5.0705  2.6882  2.6882  2.2440  1.2849  1.2849  1.2889  1.2889
  0.9985  0.9985  0.7471  0.7471  0.6754  0.6754  0.7078  0.7078  0.3211  0.6106
  0.3951  0.5206  0.5206  0.4860  0.4860  0.4609  0.4609

 Free energy of the ion-electron system (eV)
  ---------------------------------------------------
  alpha Z        PSCENC =         3.27743305
  Ewald energy   TEWEN  =     20797.62857091
  -Hartree energ DENC   =    -34684.74367971
  -exchange      EXHF   =         0.00000000
  -V(xc)+E(xc)   XCENC  =       485.90399958
  PAW double counting   =     14152.77334265   -15331.54488531
  entropy T*S    EENTRO =         0.00000000
  eigenvalues    EBANDS =      -750.12345214
  atomic energy  EATOM  =     15300.29143124
  Solvation  Ediel_sol  =         0.00000000
  ---------------------------------------------------
  free energy    TOTEN  =       -26.53723974 eV

  energy without entropy =      -26.53723974  energy(sigma->0) =      -26.53723974


--------------------------------------------------------------------------------------------------------




----------------------------------------- Iteration    1(  33)  ---------------------------------------


    POTLOK:  cpu time    1.3720: real time    1.3733
    SETDIJ:  cpu time    0.0162: real time    0.0162
     EDDAV:  cpu time   11.0413: real time   11.0625
       DOS:  cpu time    0.0001: real time    0.0001
    CHARGE:  cpu time    0.4896: real time    0.4899
    MIXING:  cpu time    0.2240: real time    0.2245
    --------------------------------------------
      LOOP:  cpu time   13.1468: real time   13.2528

 eigenvalue-minimisations  :   520
 total energy-change (2. order) :-0.1088561E-01  (-0.6839444E-05)
 number of electron     120.9999716 magnetization       1.0666445
 augmentation part       77.7157577 magnetization       0.1196772

 Broyden mixing:
  rms(total) = 0.20887E-02    rms(broyden)= 0.20884E-02
  rms(prec ) = 0.21386E-02
  weight for this iteration     100.00

 eigenvalues of (default mixing * dielectric matrix)
  average eigenvalue GAMMA=   1.9003
 13.6426  9.3002  5.5512  2.8473  2.8473  2.1195  1.6610  1.3276  1.3276  1.0013
  1.0013  1.0814  1.0814  0.7458  0.7458  0.6715  0.6715  0.6770  0.6770  0.3211
  0.5876  0.3951  0.5194  0.5194  0.4845  0.4845  0.4590  0.4590

[...]
     45      -5.5294      1.00000
     46      -5.5247      1.00000
     47      -5.5141      1.00000
     48      -5.4376      1.00000
     49      -5.4191      1.00000
     50      -5.3700      1.00000
     51      -5.3617      1.00000
     52      -5.3375      1.00000
     53      -5.2683      1.00000
     54      -5.2465      1.00000
     55      -5.2359      1.00000
     56      -5.2117      1.00000
     57      -5.1812      1.00000
     58      -5.1481      1.00000
     59      -4.9320      1.00000
     60      -4.4404      1.00000
     61      -3.6897      0.00000
     62      -3.5441      0.00000
     63      -3.2032      0.00000
     64      -2.7166      0.00000
     65      -2.3962      0.00000
     66      -2.1755      0.00000
     67      -1.6491      0.00000
     68      -1.5459      0.00000
     69      -1.2331      0.00000
     70      -0.9021      0.00000
     71      -0.8533      0.00000
     72      -0.6042      0.00000
     73      -0.5404      0.00000
     74      -0.2401      0.00000
     75      -0.0430      0.00000
     76      -0.0001      0.00000
     77       0.1417      0.00000
     78       0.1620      0.00000
     79       0.1681      0.00000
     80       0.1730      0.00000
     81       0.1800      0.00000
     82       0.1843      0.00000
     83       0.2859      0.00000
     84       0.3107      0.00000
     85       0.3191      0.00000
     86       0.3220      0.00000
     87       0.3249      0.00000
     88       0.3266      0.00000
     89       0.3301      0.00000
     90       0.3519      0.00000
     91       0.3549      0.00000
     92       0.3570      0.00000


--------------------------------------------------------------------------------------------------------


 soft charge-density along one line, spin component           1
         0         1         2         3         4         5         6         7         8         9
 total charge-density along one line
 
 soft charge-density along one line, spin component           2
         0         1         2         3         4         5         6         7         8         9
 total charge-density along one line
 
 pseudopotential strength for first ion, spin component:           1
-10.847   0.004  -0.017  -0.012  -0.007   1.257  -0.003   0.013
  0.004 -10.840  -0.007   0.020   0.009  -0.003   1.253   0.005
 -0.017  -0.007 -10.827   0.002  -0.019   0.013   0.005   1.243
 -0.012   0.020   0.002 -10.806   0.007   0.008  -0.015  -0.001
 -0.007   0.009  -0.019   0.007 -10.830   0.005  -0.006   0.014
  1.257  -0.003   0.013   0.008   0.005   6.136   0.002  -0.009
 -0.003   1.253   0.005  -0.015  -0.006   0.002   6.140  -0.003
  0.013   0.005   1.243  -0.001   0.014  -0.009  -0.003   6.144
  0.008  -0.015  -0.001   1.228  -0.004  -0.005   0.010   0.001
  0.005  -0.006   0.014  -0.004   1.244  -0.004   0.003  -0.008
 -0.004   0.001  -0.000   0.000  -0.004   0.001   0.002  -0.001
 -0.008   0.002  -0.000   0.001  -0.006   0.001   0.004  -0.002
  0.001  -0.009   0.014  -0.000   0.025   0.000   0.005  -0.008
 -0.000  -0.024  -0.009   0.002   0.000   0.000   0.015   0.004
 -0.023  -0.000  -0.001  -0.009   0.003   0.013   0.000   0.001
  0.001  -0.010   0.015   0.000   0.027   0.001   0.004  -0.007
  0.000  -0.026  -0.009   0.001   0.000   0.000   0.014   0.003
 -0.024   0.000  -0.001  -0.009   0.003   0.011   0.000   0.000
 pseudopotential strength for first ion, spin component:           2
-10.828   0.013  -0.012  -0.020  -0.001   1.242  -0.009   0.009
  0.013 -10.825  -0.003   0.014   0.014  -0.009   1.240   0.002
 -0.012  -0.003 -10.815  -0.003  -0.016   0.009   0.002   1.234
 -0.020   0.014  -0.003 -10.791   0.001   0.015  -0.010   0.002
 -0.001   0.014  -0.016   0.001 -10.817   0.000  -0.010   0.012
  1.242  -0.009   0.009   0.015   0.000   6.147   0.006  -0.006
 -0.009   1.240   0.002  -0.010  -0.010   0.006   6.149  -0.001
  0.009   0.002   1.234   0.002   0.012  -0.006  -0.001   6.151
  0.015  -0.010   0.002   1.215  -0.000  -0.009   0.007  -0.002
  0.000  -0.010   0.012  -0.000   1.234  -0.001   0.006  -0.006
 -0.003   0.003   0.000   0.000  -0.003  -0.000   0.001  -0.001
 -0.004   0.005   0.001   0.001  -0.005  -0.000   0.003  -0.002
  0.002  -0.008   0.014  -0.001   0.026  -0.001   0.004  -0.008
 -0.001  -0.026  -0.010   0.003  -0.000   0.001   0.016   0.005
 -0.025  -0.001  -0.001  -0.008   0.003   0.015   0.001   0.001
  0.003  -0.008   0.016  -0.001   0.029  -0.001   0.003  -0.008
 -0.001  -0.029  -0.011   0.003   0.000   0.002   0.016   0.004
 -0.027  -0.001  -0.002  -0.008   0.003   0.013   0.002   0.000
 total augmentation occupancy for first ion, spin component:           1
  1.948   0.004  -0.002  -0.003  -0.007  -0.003  -0.002   0.001   0.006   0.003   0.024  -0.002  -0.011  -0.010   0.095   0.003
  0.004   1.961   0.001   0.008   0.000  -0.002  -0.008  -0.002  -0.004   0.000  -0.023   0.004   0.021   0.071  -0.010  -0.013
 -0.002   0.001   1.949  -0.003  -0.002   0.000  -0.002  -0.005   0.005   0.003   0.003  -0.007  -0.042   0.034   0.004   0.021
 -0.003   0.008  -0.003   1.960  -0.004   0.006  -0.004   0.005  -0.020   0.001  -0.006  -0.006  -0.003  -0.007   0.033  -0.000
 -0.007   0.000  -0.002  -0.004   1.965   0.003   0.000   0.003   0.001  -0.019   0.009   0.002  -0.057   0.003   0.010   0.036
 -0.003  -0.002   0.000   0.006   0.003   0.009   0.001  -0.000   0.001   0.000  -0.011  -0.000  -0.001   0.004   0.022   0.000
 -0.002  -0.008  -0.002  -0.004   0.000   0.001   0.011   0.001   0.000   0.000   0.014  -0.002   0.003   0.030   0.004  -0.000
  0.001  -0.002  -0.005   0.005   0.003  -0.000   0.001   0.007   0.000   0.002   0.005   0.001  -0.011   0.010   0.000   0.001
  0.006  -0.004   0.005  -0.020   0.001   0.001   0.000   0.000   0.005  -0.000   0.011  -0.000   0.001   0.002   0.005  -0.000
  0.003   0.000   0.003   0.001  -0.019   0.000   0.000   0.002  -0.000   0.008  -0.034   0.005  -0.021   0.003   0.001   0.001
  0.024  -0.023   0.003  -0.006   0.009  -0.011   0.014   0.005   0.011  -0.034   1.625  -0.101   0.285   0.098  -0.010  -0.034
 -0.002   0.004  -0.007  -0.006   0.002  -0.000  -0.002   0.001  -0.000   0.005  -0.101   0.010  -0.029  -0.007  -0.002   0.003
 -0.011   0.021  -0.042  -0.003  -0.057  -0.001   0.003  -0.011   0.001  -0.021   0.285  -0.029   0.104   0.001  -0.002  -0.011
 -0.010   0.071   0.034  -0.007   0.003   0.004   0.030   0.010   0.002   0.003   0.098  -0.007   0.001   0.112   0.019  -0.002
  0.095  -0.010   0.004   0.033   0.010   0.022   0.004   0.000   0.005   0.001  -0.010  -0.002  -0.002   0.019   0.071   0.000
  0.003  -0.013   0.021  -0.000   0.036   0.000  -0.000   0.001  -0.000   0.001  -0.034   0.003  -0.011  -0.002   0.000   0.002
 -0.001  -0.039  -0.016   0.003  -0.001  -0.000  -0.001  -0.000  -0.000   0.000  -0.011   0.001  -0.002  -0.007  -0.000   0.000
 -0.039  -0.001  -0.001  -0.015   0.001  -0.001  -0.000  -0.000  -0.000  -0.000   0.000   0.000   0.000  -0.000  -0.005  -0.000
 total augmentation occupancy for first ion, spin component:           2
  0.005   0.004   0.003  -0.004   0.003  -0.002  -0.001  -0.001   0.001  -0.001   0.003   0.000   0.003  -0.008  -0.005   0.000
  0.004   0.003   0.002  -0.003   0.003  -0.001  -0.001  -0.001   0.001  -0.001   0.001   0.000   0.002  -0.006  -0.004   0.000
  0.003   0.002   0.001  -0.002   0.002  -0.001  -0.001  -0.000   0.001  -0.001   0.002  -0.000   0.001  -0.005  -0.003   0.000
 -0.004  -0.003  -0.002   0.003  -0.003   0.001   0.001   0.001  -0.001   0.001  -0.000  -0.000  -0.003   0.006   0.004  -0.000
  0.003   0.003   0.002  -0.003   0.001  -0.001  -0.001  -0.001   0.001  -0.001   0.002   0.000   0.001  -0.005  -0.003   0.000
 -0.002  -0.001  -0.001   0.001  -0.001   0.000   0.000   0.000  -0.000   0.000  -0.001   0.000  -0.001   0.002   0.001   0.000
 -0.001  -0.001  -0.001   0.001  -0.001   0.000   0.000   0.000  -0.000   0.000  -0.001   0.000  -0.001   0.002   0.001   0.000
 -0.001  -0.001  -0.000   0.001  -0.001   0.000   0.000   0.000  -0.000   0.000   0.000  -0.000  -0.000   0.001   0.001  -0.000
  0.001   0.001   0.001  -0.001   0.001  -0.000  -0.000  -0.000   0.000  -0.000   0.001  -0.000   0.001  -0.002  -0.001   0.000
 -0.001  -0.001  -0.001   0.001  -0.001   0.000   0.000   0.000  -0.000   0.000  -0.000  -0.000  -0.000   0.001   0.001  -0.000
  0.003   0.001   0.002  -0.000   0.002  -0.001  -0.001   0.000   0.001  -0.000  -0.005  -0.001   0.001  -0.003  -0.002  -0.000
  0.000   0.000  -0.000  -0.000   0.000   0.000   0.000  -0.000  -0.000  -0.000  -0.001   0.000   0.000  -0.000   0.000   0.000
  0.003   0.002   0.001  -0.003   0.001  -0.001  -0.001  -0.000   0.001  -0.000   0.001   0.000   0.001  -0.004  -0.003  -0.000
 -0.008  -0.006  -0.005   0.006  -0.005   0.002   0.002   0.001  -0.002   0.001  -0.003  -0.000  -0.004   0.011   0.007  -0.000
 -0.005  -0.004  -0.003   0.004  -0.003   0.001   0.001   0.001  -0.001   0.001  -0.002   0.000  -0.003   0.007   0.004  -0.000
  0.000   0.000   0.000  -0.000   0.000   0.000   0.000  -0.000   0.000  -0.000  -0.000   0.000  -0.000  -0.000  -0.000   0.000
 -0.000  -0.000  -0.000   0.000  -0.000   0.000   0.000   0.000  -0.000   0.000   0.000  -0.000  -0.000   0.000   0.000  -0.000
 -0.000  -0.000   0.000   0.000  -0.000   0.000  -0.000   0.000  -0.000   0.000   0.000  -0.000   0.000   0.000  -0.000  -0.000


------------------------ aborting loop because EDIFF is reached ----------------------------------------


 


 total charge     
 
# of ion     s       p       d       tot
----------------------------------------
  1        0.457   0.150   9.295   9.903
  2        0.444   0.252   9.239   9.935
  3        0.469   0.181   9.258   9.908
  4        0.500   0.102   9.281   9.883
  5        0.436   0.245   9.255   9.937
  6        0.502   0.100   9.281   9.883
  7        0.436   0.242   9.254   9.932
  8        0.439   0.296   9.228   9.963
  9        0.439   0.254   9.241   9.933
 10        0.468   0.183   9.257   9.907
 11        0.456   0.149   9.294   9.899
------------------------------------------------
tot        5.046   2.154 101.883 109.082
 


 magnetization (x)
 
# of ion     s       p       d       tot
----------------------------------------
  1       -0.002   0.010   0.016   0.024
  2        0.011   0.004   0.024   0.039
  3        0.040   0.013   0.015   0.067
  4        0.052   0.005   0.005   0.062
  5        0.001   0.005   0.014   0.020
  6        0.049   0.003   0.001   0.053
  7        0.006   0.005   0.015   0.026
  8       -0.001   0.022  -0.005   0.017
  9        0.007   0.002   0.030   0.039
 10        0.042   0.012   0.011   0.065
 11       -0.000   0.014   0.013   0.027
------------------------------------------------
tot        0.205   0.095   0.140   0.439
 
    CHARGE:  cpu time    0.4803: real time    0.4807
    FORLOC:  cpu time    0.0479: real time    0.0479
    FORNL :  cpu time    2.3700: real time    2.3717
    STRESS:  cpu time    8.2735: real time    8.2921
    FORCOR:  cpu time    1.3680: real time    1.3709
    FORHAR:  cpu time    0.1906: real time    0.1911
    MIXING:  cpu time    0.1208: real time    0.1208
    OFIELD:  cpu time    0.0001: real time    0.0001

  FORCE on cell =-STRESS in cart. coord.  units (eV):
  Direction    XX          YY          ZZ          XY          YZ          ZX
  --------------------------------------------------------------------------------------
  Alpha Z     3.27743     3.27743     3.27743
  Ewald    4622.94080  5780.29644 10648.82306  -559.65029  -378.11797 -1531.21565
  Hartree  9547.14733 10482.40299 14906.18221  -468.45503  -326.85465 -1359.81866
  E(xc)    -706.25694  -706.02118  -705.04987    -0.11252    -0.13753    -0.29541
  Local  -15235.19162-17315.33864-26610.60693  1023.69309   705.64706  2888.16520
  n-local  -267.56257  -267.95438  -264.12062     0.15189    -0.60854    -0.78003
  augment  1034.70475  1029.26563  1028.28333     2.02830    -0.16851     1.85790
  Kinetic   997.80369   991.26521   990.25139     2.37515     0.14159     2.04671
  Fock        0.00000     0.00000     0.00000     0.00000     0.00000     0.00000
  -------------------------------------------------------------------------------------
  Total      -3.13713    -2.80649    -2.96000     0.03059    -0.09855    -0.03994
  in kB      -0.18616    -0.16654    -0.17565     0.00181    -0.00585    -0.00237
  external pressure =       -0.18 kB  Pullay stress =        0.00 kB


 VOLUME and BASIS-vectors are now :
 -----------------------------------------------------------------------------
  energy-cutoff  :      295.45
  volume of cell :    27000.00
      direct lattice vectors                 reciprocal lattice vectors
    30.000000000  0.000000000  0.000000000     0.033333333  0.000000000  0.000000000
     0.000000000 30.000000000  0.000000000     0.000000000  0.033333333  0.000000000
     0.000000000  0.000000000 30.000000000     0.000000000  0.000000000  0.033333333

  length of vectors
    30.000000000 30.000000000 30.000000000     0.033333333  0.033333333  0.033333333


 FORCES acting on ions
    electron-ion (+dipol)            ewald-force                    non-local-force                 convergence-correction
 -----------------------------------------------------------------------------------------------
   0.214E+02 0.125E+04 0.412E+03   -.225E+02 -.124E+04 -.408E+03   0.104E+01 -.107E+02 -.431E+01   -.365E-04 0.188E-04 -.786E-04
   -.114E+04 0.230E+03 0.132E+03   0.114E+04 -.228E+03 -.130E+03   0.380E+01 -.191E+01 -.202E+01   0.855E-04 0.271E-04 0.184E-04
   0.408E+03 0.228E+03 0.118E+04   -.406E+03 -.227E+03 -.118E+04   -.254E+01 -.124E+01 -.570E+01   -.121E-03 0.520E-04 -.332E-04
   -.755E+03 -.372E+03 0.886E+03   0.748E+03 0.369E+03 -.879E+03   0.748E+01 0.349E+01 -.694E+01   -.846E-04 -.948E-04 -.433E-04
   -.371E+03 0.996E+03 -.571E+03   0.370E+03 -.990E+03 0.567E+03   0.539E+00 -.553E+01 0.391E+01   0.110E-03 0.345E-04 -.132E-03
   -.362E+03 0.659E+02 -.116E+04   0.357E+03 -.660E+02 0.115E+04   0.457E+01 0.783E-01 0.101E+02   -.807E-04 -.760E-04 0.101E-03
   -.139E+02 -.112E+04 0.478E+03   0.143E+02 0.111E+04 -.474E+03   -.364E+00 0.560E+01 -.381E+01   0.313E-04 -.329E-04 -.978E-04
   0.102E+04 0.324E+03 0.258E+03   -.102E+04 -.324E+03 -.258E+03   -.178E+01 -.563E+00 -.184E+00   0.149E-03 0.634E-04 0.131E-03
   -.615E+03 -.798E+03 -.608E+03   0.615E+03 0.795E+03 0.604E+03   0.730E+00 0.364E+01 0.375E+01   -.224E-04 -.879E-05 -.305E-04
   0.933E+03 0.158E+03 -.850E+03   -.928E+03 -.157E+03 0.846E+03   -.478E+01 -.141E+01 0.388E+01   0.232E-05 -.420E-04 -.380E-04
   0.880E+03 -.971E+03 -.157E+03   -.873E+03 0.962E+03 0.156E+03   -.693E+01 0.918E+01 0.168E+01   0.199E-03 0.570E-04 0.261E-04
 -----------------------------------------------------------------------------------------------
   -.173E+01 -.571E+00 -.278E+00   0.568E-12 0.227E-12 0.284E-12   0.176E+01 0.645E+00 0.342E+00   0.233E-03 -.173E-05 -.177E-03
 
 
 POSITION                                       TOTAL-FORCE (eV/Angst)
 -----------------------------------------------------------------------------------
      8.95698      6.69218      7.90414         0.010856     -0.006663      0.008108
     10.40207      8.60627      8.25500        -0.007198     -0.002042      0.010146
      8.62720      8.56963      6.36426         0.005017     -0.004978      0.010560
     10.66684      9.79106      6.16519        -0.003595      0.006151      0.007269
      9.34707      7.51654     10.18468        -0.000253     -0.007497     -0.000306
      9.43647      8.67850     12.28717        -0.001148      0.009026      0.003043
      9.03434     10.52125      7.82740        -0.007574      0.009721     -0.003724
      7.71334      8.56779      8.62935         0.001010     -0.005106     -0.021980
      9.45907      9.90906     10.17054        -0.002032      0.014550     -0.000713
      7.38311      8.79388     11.05454         0.005548     -0.005988      0.005638
      7.23737     10.69287      9.51715        -0.000631     -0.007175     -0.018042
 -----------------------------------------------------------------------------------
    total drift:                                0.037416      0.073649      0.063805


--------------------------------------------------------------------------------------------------------



  FREE ENERGIE OF THE ION-ELECTRON SYSTEM (eV)
  ---------------------------------------------------
  free  energy   TOTEN  =       -26.87810784 eV

  energy  without entropy=      -26.87810784  energy(sigma->0) =      -26.87810784
 
 d Force = 0.4872594E-03[ 0.293E-03, 0.681E-03]  d Energy = 0.5253029E-03-0.380E-04
 d Force =-0.4862290E-01[-0.256E-01,-0.717E-01]  d Ewald  =-0.4862863E-01 0.573E-05


--------------------------------------------------------------------------------------------------------


    POTLOK:  cpu time    1.4103: real time    1.4111


--------------------------------------------------------------------------------------------------------


 Conjugate gradient step on ions:
 trial-energy change:   -0.000525  1 .order   -0.000487   -0.000681   -0.000293
  (g-gl).g = 0.341E-03      g.g   = 0.347E-03  gl.gl    = 0.450E-03
 g(Force)  = 0.347E-03   g(Stress)= 0.000E+00 ortho     =-0.472E-05
 gamma     =   0.75688
 trial     =   1.98553
 opt step  =   2.80555  (harmonic =   3.48757) maximal distance =0.00603964
 next E    =   -26.878171   (d E  =  -0.00059)


--------------------------------------------------------------------------------------------------------


  
 reached required accuracy - stopping structural energy minimisation
     LOOP+:  cpu time  207.8047: real time  208.2665
    4ORBIT:  cpu time    0.0000: real time    0.0000
 


 total charge     
 
# of ion     s       p       d       tot
----------------------------------------
  1        0.457   0.150   9.295   9.903
  2        0.444   0.252   9.239   9.935
  3        0.469   0.181   9.258   9.908
  4        0.500   0.102   9.281   9.883
  5        0.436   0.245   9.255   9.937
  6        0.502   0.100   9.281   9.883
  7        0.436   0.242   9.254   9.932
  8        0.439   0.296   9.228   9.963
  9        0.439   0.254   9.241   9.933
 10        0.468   0.183   9.257   9.907
 11        0.456   0.149   9.294   9.899
------------------------------------------------
tot        5.046   2.154 101.883 109.082
 


 magnetization (x)
 
# of ion     s       p       d       tot
----------------------------------------
  1       -0.002   0.010   0.016   0.024
  2        0.011   0.004   0.024   0.039
  3        0.040   0.013   0.015   0.067
  4        0.052   0.005   0.005   0.062
  5        0.001   0.005   0.014   0.020
  6        0.049   0.003   0.001   0.053
  7        0.006   0.005   0.015   0.026
  8       -0.001   0.022  -0.005   0.017
  9        0.007   0.002   0.030   0.039
 10        0.042   0.012   0.011   0.065
 11       -0.000   0.014   0.013   0.027
------------------------------------------------
tot        0.205   0.095   0.140   0.439
 

 total amount of memory used by VASP on root node   165356. kBytes
========================================================================

   base      :      30000. kBytes
   nonl-proj :       8289. kBytes
   fftplans  :      30597. kBytes
   grid      :      77361. kBytes
   one-center:         31. kBytes
   wavefun   :      19078. kBytes
 
  
  
 General timing and accounting informations for this job:
 ========================================================
  
                  Total CPU time used (sec):    15579.993
                            User time (sec):    15116.631
                          System time (sec):      463.362
                         Elapsed time (sec):    15619.779
  
                   Maximum memory used (kb):      306160.
                   Average memory used (kb):           0.
  
                          Minor page faults:     25405333
                          Major page faults:            0
                 Voluntary context switches:        26611
