 vasp.5.4.1 05Feb16 (build Apr 11 2020 03:28:46) gamma-only                     
  
 executed on           IFC91_ompi date 2022.06.03  13:03:35
 running on   24 total cores
 distrk:  each k-point on   24 cores,    1 groups
 distr:  one band on NCORES_PER_BAND=   6 cores,    4 groups


--------------------------------------------------------------------------------------------------------


 INCAR:
 POTCAR:    PAW_PBE Cu 22Jun2005                  
 POTCAR:    PAW_PBE Cu 22Jun2005                  
   VRHFIN =Cu: d10 p1                                                           
   LEXCH  = PE                                                                  
   EATOM  =  1390.9808 eV,  102.2342 Ry                                         
                                                                                
   TITEL  = PAW_PBE Cu 22Jun2005                                                
   LULTRA =        F    use ultrasoft PP ?                                      
   IUNSCR =        1    unscreen: 0-lin 1-nonlin 2-no                           
   RPACOR =    2.000    partial core radius                                     
   POMASS =   63.546; ZVAL   =   11.000    mass and valenz                      
   RCORE  =    2.300    outmost cutoff radius                                   
   RWIGS  =    2.200; RWIGS  =    1.164    wigner-seitz radius (au A)           
   ENMAX  =  295.446; ENMIN  =  221.585 eV                                      
   ICORE  =        3    local potential                                         
   LCOR   =        T    correct aug charges                                     
   LPAW   =        T    paw PP                                                  
   EAUG   =  586.980                                                            
   DEXC   =    0.000                                                            
   RMAX   =    2.344    core radius for proj-oper                               
   RAUG   =    1.300    factor for augmentation sphere                          
   RDEP   =    2.302    radius for radial grids                                 
   RDEPT  =    1.771    core radius for aug-charge                              
                                                                                
   Atomic configuration                                                         
    9 entries                                                                   
     n  l   j            E        occ.                                          
     1  0  0.50     -8850.2468   2.0000                                         
     2  0  0.50     -1062.3498   2.0000                                         
     2  1  1.50      -916.8226   6.0000                                         
     3  0  0.50      -114.6929   2.0000                                         
     3  1  1.50       -72.1325   6.0000                                         
     3  2  2.50        -5.0394  10.0000                                         
     4  0  0.50        -4.6097   1.0000                                         
     4  1  0.50        -4.0817   0.0000                                         
     4  3  2.50        -1.3606   0.0000                                         
   Description                                                                  
     l       E           TYP  RCUT    TYP  RCUT                                 
     2     -5.0393973     23  2.200                                             
     2     10.8846608     23  2.200                                             
     0     -4.6097109     23  2.200                                             
     0      8.2520465     23  2.200                                             
     1     -2.7211652     23  2.200                                             
     1     21.7055443     23  2.200                                             
     3      2.7211652     23  2.300                                             
  local pseudopotential read in
  partial core-charges read in
  partial kinetic energy density read in
  atomic valenz-charges read in
  non local Contribution for L=           2  read in
    real space projection operators read in
  non local Contribution for L=           2  read in
    real space projection operators read in
  non local Contribution for L=           0  read in
    real space projection operators read in
  non local Contribution for L=           0  read in
    real space projection operators read in
  non local Contribution for L=           1  read in
    real space projection operators read in
  non local Contribution for L=           1  read in
    real space projection operators read in
    PAW grid and wavefunctions read in
 
   number of l-projection  operators is LMAX  =           6
   number of lm-projection operators is LMMAX =          18
 
  PAW_PBE Cu 22Jun2005                  :
 energy of atom  1       EATOM=-1390.9808
 kinetic energy error for atom=    0.0452 (will be added to EATOM!!)
 
 
 POSCAR: unknown system                          
  positions in direct lattice
  velocities in cartesian coordinates
 exchange correlation table for  LEXCH =        8
   RHO(1)=    0.500       N(1)  =     2000
   RHO(2)=  100.500       N(2)  =     4000
 


--------------------------------------------------------------------------------------------------------


 ion  position               nearest neighbor table
   1  0.623  0.482  0.451-   2 2.42   6 2.44   7 2.45   3 2.46   5 2.54
   2  0.567  0.510  0.563-   1 2.42   3 2.42   8 2.43   5 2.46  11 2.50   7 2.55
   3  0.531  0.575  0.458-   9 2.42   2 2.42   1 2.46   4 2.46  11 2.48   6 2.49   7 2.58
   4  0.417  0.638  0.469-   9 2.39  11 2.39   3 2.46
   5  0.590  0.384  0.537-   7 2.39   2 2.46   8 2.47   1 2.54
   6  0.536  0.491  0.355-   7 2.39   1 2.44   9 2.48   3 2.49
   7  0.501  0.441  0.466-   6 2.39   5 2.39   8 2.41   9 2.41   1 2.45   2 2.55   3 2.58  11 2.60

   8  0.476  0.422  0.591-  10 2.35   7 2.41   2 2.43  11 2.45   5 2.47
   9  0.422  0.525  0.411-   4 2.39   7 2.41   3 2.42   6 2.48  11 2.52
  10  0.399  0.495  0.656-   8 2.35  11 2.37
  11  0.438  0.537  0.544-  10 2.37   4 2.39   8 2.45   3 2.48   2 2.50   9 2.52   7 2.60
 
  LATTYP: Found a simple cubic cell.
 ALAT       =    18.7737660000
  
  Lattice vectors:
  
 A1 = (  18.7737660000,   0.0000000000,   0.0000000000)
 A2 = (   0.0000000000,  18.7737660000,   0.0000000000)
 A3 = (   0.0000000000,   0.0000000000,  18.7737660000)


Analysis of symmetry for initial positions (statically):
=====================================================================
 Subroutine PRICEL returns:
 Original cell was already a primitive cell.
 

 Routine SETGRP: Setting up the symmetry group for a 
 simple cubic supercell.


 Subroutine GETGRP returns: Found  1 space group operations
 (whereof  1 operations were pure point group operations)
 out of a pool of 48 trial point group operations.


The static configuration has the point symmetry C_1 .


Analysis of symmetry for dynamics (positions and initial velocities):
=====================================================================
 Subroutine PRICEL returns:
 Original cell was already a primitive cell.
 

 Routine SETGRP: Setting up the symmetry group for a 
 simple cubic supercell.


 Subroutine GETGRP returns: Found  1 space group operations
 (whereof  1 operations were pure point group operations)
 out of a pool of 48 trial point group operations.


The dynamic configuration has the point symmetry C_1 .


Analysis of structural, dynamic, and magnetic symmetry:
=====================================================================
 Subroutine PRICEL returns:
 Original cell was already a primitive cell.
 

 Routine SETGRP: Setting up the symmetry group for a 
 simple cubic supercell.


 Subroutine GETGRP returns: Found  1 space group operations
 (whereof  1 operations were pure point group operations)
 out of a pool of 48 trial point group operations.


The magnetic configuration has the point symmetry C_1 .


 Subroutine INISYM returns: Found  1 space group operations
 (whereof  1 operations are pure point group operations),
 and found     1 'primitive' translations

 
 
 KPOINTS: Gamma-point only                        
  k-points in reciprocal lattice
Space group operators:
 irot       det(A)        alpha          n_x          n_y          n_z        tau_x        tau_y        tau_z
    1     1.000000     0.000000     1.000000     0.000000     0.000000     0.000000     0.000000     0.000000


--------------------------------------------------------------------------------------------------------




 Dimension of arrays:
   k-points           NKPTS =      1   k-points in BZ     NKDIM =      1   number of bands    NBANDS=     92
   number of dos      NEDOS =    301   number of ions     NIONS =     11
   non local maximal  LDIM  =      6   non local SUM 2l+1 LMDIM =     18
   total plane-waves  NPLWV = 512000
   max r-space proj   IRMAX =      1   max aug-charges    IRDMAX=   2441
   dimension x,y,z NGX =    80 NGY =   80 NGZ =   80
   dimension x,y,z NGXF=   160 NGYF=  160 NGZF=  160
   support grid    NGXF=   160 NGYF=  160 NGZF=  160
   ions per type =              11
 NGX,Y,Z   is equivalent  to a cutoff of   7.08,  7.08,  7.08 a.u.
 NGXF,Y,Z  is equivalent  to a cutoff of  14.17, 14.17, 14.17 a.u.


 I would recommend the setting:
   dimension x,y,z NGX =    79 NGY =   79 NGZ =   79
 SYSTEM =  unknown system                          
 POSCAR =  unknown system                          

 Startparameter for this run:
   NWRITE =      2    write-flag & timer
   PREC   = normal    normal or accurate (medium, high low for compatibility)
   ISTART =      0    job   : 0-new  1-cont  2-samecut
   ICHARG =      2    charge: 1-file 2-atom 10-const
   ISPIN  =      2    spin polarized calculation?
   LNONCOLLINEAR =      F non collinear calculations
   LSORBIT =      F    spin-orbit coupling
   INIWAV =      1    electr: 0-lowe 1-rand  2-diag
   LASPH  =      F    aspherical Exc in radial PAW
   METAGGA=      F    non-selfconsistent MetaGGA calc.

 Electronic Relaxation 1
   ENCUT  =  295.4 eV  21.71 Ry    4.66 a.u.  26.31 26.31 26.31*2*pi/ulx,y,z
   ENINI  =  295.4     initial cutoff
   ENAUG  =  587.0 eV  augmentation charge cutoff
   NELM   =     60;   NELMIN=  2; NELMDL=  0     # of ELM steps 
   EDIFF  = 0.1E-05   stopping-criterion for ELM
   LREAL  =      F    real-space projection
   NLSPLINE    = F    spline interpolate recip. space projectors
   LCOMPAT=      F    compatible to vasp.4.4
   GGA_COMPAT  = T    GGA compatible to vasp.4.4-vasp.4.6
   LMAXPAW     = -100 max onsite density
   LMAXMIX     =    2 max onsite mixed and CHGCAR
   VOSKOWN=      0    Vosko Wilk Nusair interpolation
   ROPT   =    0.00000
 Ionic relaxation
   EDIFFG = -.3E-01   stopping-criterion for IOM
   NSW    =   1000    number of steps for IOM
   NBLOCK =      1;   KBLOCK =   1000    inner block; outer block 
   IBRION =      2    ionic relax: 0-MD 1-quasi-New 2-CG
   NFREE  =      1    steps in history (QN), initial steepest desc. (CG)
   ISIF   =      2    stress and relaxation
   IWAVPR =     11    prediction:  0-non 1-charg 2-wave 3-comb
   ISYM   =      2    0-nonsym 1-usesym 2-fastsym
   LCORR  =      T    Harris-Foulkes like correction to forces

   POTIM  = 0.5000    time-step for ionic-motion
   TEIN   =    0.0    initial temperature
   TEBEG  =    0.0;   TEEND  =   0.0 temperature during run
   SMASS  =  -3.00    Nose mass-parameter (am)
   estimated Nose-frequenzy (Omega)   =  0.10E-29 period in steps =****** mass=  -0.805E-26a.u.
   SCALEE = 1.0000    scale energy and forces
   NPACO  =    256;   APACO  = 16.0  distance and # of slots for P.C.
   PSTRESS=    0.0 pullay stress

  Mass of Ions in am
   POMASS =  63.55
  Ionic Valenz
   ZVAL   =  11.00
  Atomic Wigner-Seitz radii
   RWIGS  =  -1.00
  virtual crystal weights 
   VCA    =   1.00
   NELECT =     121.0000    total number of electrons
   NUPDOWN=      -1.0000    fix difference up-down

 DOS related values:
   EMIN   =  10.00;   EMAX   =-10.00  energy-range for DOS
   EFERMI =   0.00
   ISMEAR =     0;   SIGMA  =   0.00  broadening in eV -4-tet -1-fermi 0-gaus

 Electronic relaxation 2 (details)
   IALGO  =     38    algorithm
   LDIAG  =      T    sub-space diagonalisation (order eigenvalues)
   LSUBROT=      F    optimize rotation matrix (better conditioning)
   TURBO    =      0    0=normal 1=particle mesh
   IRESTART =      0    0=no restart 2=restart with 2 vectors
   NREBOOT  =      0    no. of reboots
   NMIN     =      0    reboot dimension
   EREF     =   0.00    reference energy to select bands
   IMIX   =      4    mixing-type and parameters
     AMIX     =   0.40;   BMIX     =  1.00
     AMIX_MAG =   1.60;   BMIX_MAG =  1.00
     AMIN     =   0.10
     WC   =   100.;   INIMIX=   1;  MIXPRE=   1;  MAXMIX= -45

 Intra band minimization:
   WEIMIN = 0.0010     energy-eigenvalue tresh-hold
   EBREAK =  0.27E-08  absolut break condition
   DEPER  =   0.30     relativ break condition  

   TIME   =   0.40     timestep for ELM

  volume/ion in A,a.u.               =     601.54      4059.36
  Fermi-wavevector in a.u.,A,eV,Ry     =   0.431306  0.815050  2.531019  0.186025
  Thomas-Fermi vector in A             =   1.400382
 
 Write flags
   LWAVE  =      F    write WAVECAR
   LCHARG =      F    write CHGCAR
   LVTOT  =      F    write LOCPOT, total local potential
   LVHAR  =      F    write LOCPOT, Hartree potential only
   LELF   =      F    write electronic localiz. function (ELF)
   LORBIT =     11    0 simple, 1 ext, 2 COOP (PROOUT)


 Dipole corrections
   LMONO  =      F    monopole corrections only (constant potential shift)
   LDIPOL =      F    correct potential (dipole corrections)
   IDIPOL =      0    1-x, 2-y, 3-z, 4-all directions 
   EPSILON=  1.0000000 bulk dielectric constant

 Exchange correlation treatment:
   GGA     =    PE    GGA type
   LEXCH   =     8    internal setting for exchange type
   VOSKOWN=      0    Vosko Wilk Nusair interpolation
   LHFCALC =     F    Hartree Fock is set to
   LHFONE  =     F    Hartree Fock one center treatment
   AEXX    =    0.0000 exact exchange contribution

 Linear response parameters
   LEPSILON=     F    determine dielectric tensor
   LRPA    =     F    only Hartree local field effects (RPA)
   LNABLA  =     F    use nabla operator in PAW spheres
   LVEL    =     F    velocity operator in full k-point grid
   LINTERFAST=   F  fast interpolation
   KINTER  =     0    interpolate to denser k-point grid
   CSHIFT  =0.1000    complex shift for real part using Kramers Kronig
   OMEGAMAX=  -1.0    maximum frequency
   DEG_THRESHOLD= 0.2000000E-02 threshold for treating states as degnerate
   RTIME   =    0.100 relaxation time in fs

 Orbital magnetization related:
   ORBITALMAG=     F  switch on orbital magnetization
   LCHIMAG   =     F  perturbation theory with respect to B field
   DQ        =  0.001000  dq finite difference perturbation B field



--------------------------------------------------------------------------------------------------------


 conjugate gradient relaxation of ions
 charge density and potential will be updated during run
 spin polarized calculation
 Variant of blocked Davidson
 Davidson routine will perform the subspace rotation
 perform sub-space diagonalisation
    after iterative eigenvector-optimisation
 modified Broyden-mixing scheme, WC =      100.0
 initial mixing is a Kerker type mixing with AMIX =  0.4000 and BMIX =      1.0000
 Hartree-type preconditioning will be used
 using additional bands           31
 reciprocal scheme for non local part
 use partial core corrections
 calculate Harris-corrections to forces 
   (improved forces if not selfconsistent)
 use gradient corrections 
 use of overlap-Matrix (Vanderbilt PP)
 Gauss-broadening in eV      SIGMA  =   0.00


--------------------------------------------------------------------------------------------------------


  energy-cutoff  :      295.45
  volume of cell :     6616.89
      direct lattice vectors                 reciprocal lattice vectors
    18.773766000  0.000000000  0.000000000     0.053265818  0.000000000  0.000000000
     0.000000000 18.773766000  0.000000000     0.000000000  0.053265818  0.000000000
     0.000000000  0.000000000 18.773766000     0.000000000  0.000000000  0.053265818

  length of vectors
    18.773766000 18.773766000 18.773766000     0.053265818  0.053265818  0.053265818


 
 k-points in units of 2pi/SCALE and weight: Gamma-point only                        
   0.00000000  0.00000000  0.00000000       1.000
 
 k-points in reciprocal lattice and weights: Gamma-point only                        
   0.00000000  0.00000000  0.00000000       1.000
 
 position of ions in fractional coordinates (direct lattice) 
   0.62339869  0.48189752  0.45091029
   0.56668475  0.50980423  0.56300980
   0.53116517  0.57460987  0.45755423
   0.41722499  0.63845921  0.46897286
   0.58976275  0.38364734  0.53725789
   0.53646613  0.49072304  0.35504074
   0.50064224  0.44093396  0.46641763
   0.47603332  0.42185624  0.59073654
   0.42188276  0.52547423  0.41067252
   0.39862602  0.49522133  0.65584692
   0.43811318  0.53737302  0.54358058
 
 position of ions in cartesian coordinates  (Angst):
  11.70354113  9.04703128  8.46528427
  10.63880689  9.57094532 10.56981424
   9.97197061 10.78759124  8.59001605
   7.83288433 11.98628381  8.80438673
  11.07206786  7.20250539 10.08635391
  10.07148959  9.21271952  6.66545177
   9.39894026  8.27799099  8.75641544
   8.93693816  7.91983034 11.09034957
   7.92032822  9.86513023  7.70986979
   7.48371162  9.29716937 12.31271661
   8.22503432 10.08851533 10.20505461
 


--------------------------------------------------------------------------------------------------------


 use parallel FFT for wavefunctions z direction half grid
 k-point  1 :   0.0000 0.0000 0.0000  plane waves:   38203

 maximum and minimum number of plane-waves per node :      6372     6360

 maximum number of plane-waves:     38203
 maximum index in each direction: 
   IXMAX=   26   IYMAX=   26   IZMAX=   26
   IXMIN=  -26   IYMIN=  -26   IZMIN=    0

 WARNING: aliasing errors must be expected set NGX to 106 to avoid them
 WARNING: aliasing errors must be expected set NGY to 106 to avoid them
 WARNING: aliasing errors must be expected set NGZ to 106 to avoid them
 aliasing errors are usually negligible using standard VASP settings
 and one can safely disregard these warnings

 parallel 3D FFT for wavefunctions:
    minimum data exchange during FFTs selected (reduces bandwidth)
 parallel 3D FFT for charge:
    minimum data exchange during FFTs selected (reduces bandwidth)


 total amount of memory used by VASP on root node    64974. kBytes
========================================================================

   base      :      30000. kBytes
   nonl-proj :       2039. kBytes
   fftplans  :       7970. kBytes
   grid      :      20231. kBytes
   one-center:         31. kBytes
   wavefun   :       4703. kBytes
 
     INWAV:  cpu time    0.0000: real time    0.0000
 Broyden mixing: mesh for mixing (old mesh)
   NGX = 53   NGY = 53   NGZ = 53
  (NGX  =160   NGY  =160   NGZ  =160)
  gives a total of 148877 points

 initial charge density was supplied:
 charge density of overlapping atoms calculated
 number of electron     121.0000000 magnetization      33.0000000
 keeping initial charge density in first step


--------------------------------------------------------------------------------------------------------


 Maximum index for augmentation-charges          194 (set IRDMAX)


--------------------------------------------------------------------------------------------------------


 First call to EWALD:  gamma=   0.094
 Maximum number of real-space cells 3x 3x 3
 Maximum number of reciprocal cells 3x 3x 3

 FEWALD executed in parallel
    FEWALD:  cpu time    0.0019: real time    0.0019


----------------------------------------- Iteration    1(   1)  ---------------------------------------


    POTLOK:  cpu time    0.2928: real time    0.2933
    SETDIJ:  cpu time    0.0072: real time    0.0072
     EDDAV:  cpu time    0.9767: real time    0.9799
       DOS:  cpu time    0.0001: real time    0.0001
    --------------------------------------------
      LOOP:  cpu time    1.2797: real time    1.3083

 eigenvalue-minimisations  :   368
 total energy-change (2. order) : 0.7754750E+03  (-0.2195065E+04)
 number of electron     121.0000000 magnetization      33.0000000
 augmentation part      121.0000000 magnetization      33.0000000

 Free energy of the ion-electron system (eV)
  ---------------------------------------------------
  alpha Z        PSCENC =        13.37344797
  Ewald energy   TEWEN  =     15161.32569691
  -Hartree energ DENC   =    -29112.51278891
  -exchange      EXHF   =         0.00000000
  -V(xc)+E(xc)   XCENC  =       503.85239352
  PAW double counting   =     13499.38897783   -14661.85464542
  entropy T*S    EENTRO =         0.00000000
  eigenvalues    EBANDS =        71.61045778
  atomic energy  EATOM  =     15300.29143124
  Solvation  Ediel_sol  =         0.00000000
  ---------------------------------------------------
  free energy    TOTEN  =       775.47497090 eV

  energy without entropy =      775.47497090  energy(sigma->0) =      775.47497090


--------------------------------------------------------------------------------------------------------




----------------------------------------- Iteration    1(   2)  ---------------------------------------


     EDDAV:  cpu time    1.0505: real time    1.0513
       DOS:  cpu time    0.0001: real time    0.0001
    --------------------------------------------
      LOOP:  cpu time    1.0529: real time    1.0569

 eigenvalue-minimisations  :   400
 total energy-change (2. order) :-0.6777233E+03  (-0.5808136E+03)
 number of electron     121.0000000 magnetization      33.0000000
 augmentation part      121.0000000 magnetization      33.0000000

 Free energy of the ion-electron system (eV)
  ---------------------------------------------------
  alpha Z        PSCENC =        13.37344797
  Ewald energy   TEWEN  =     15161.32569691
  -Hartree energ DENC   =    -29112.51278891
  -exchange      EXHF   =         0.00000000
  -V(xc)+E(xc)   XCENC  =       503.85239352
  PAW double counting   =     13499.38897783   -14661.85464542
  entropy T*S    EENTRO =         0.00000000
  eigenvalues    EBANDS =      -606.11286123
  atomic energy  EATOM  =     15300.29143124
  Solvation  Ediel_sol  =         0.00000000
  ---------------------------------------------------
  free energy    TOTEN  =        97.75165190 eV

  energy without entropy =       97.75165190  energy(sigma->0) =       97.75165190


--------------------------------------------------------------------------------------------------------




----------------------------------------- Iteration    1(   3)  ---------------------------------------


     EDDAV:  cpu time    1.1478: real time    1.6251
       DOS:  cpu time    0.0001: real time    0.0001
    --------------------------------------------
      LOOP:  cpu time    1.1501: real time    1.6302

 eigenvalue-minimisations  :   468
 total energy-change (2. order) :-0.1034820E+03  (-0.9654587E+02)
 number of electron     121.0000000 magnetization      33.0000000
 augmentation part      121.0000000 magnetization      33.0000000

 Free energy of the ion-electron system (eV)
  ---------------------------------------------------
  alpha Z        PSCENC =        13.37344797
  Ewald energy   TEWEN  =     15161.32569691
  -Hartree energ DENC   =    -29112.51278891
  -exchange      EXHF   =         0.00000000
  -V(xc)+E(xc)   XCENC  =       503.85239352
  PAW double counting   =     13499.38897783   -14661.85464542
  entropy T*S    EENTRO =         0.00000000
  eigenvalues    EBANDS =      -709.59487475
  atomic energy  EATOM  =     15300.29143124
  Solvation  Ediel_sol  =         0.00000000
  ---------------------------------------------------
  free energy    TOTEN  =        -5.73036163 eV

  energy without entropy =       -5.73036163  energy(sigma->0) =       -5.73036163


--------------------------------------------------------------------------------------------------------




----------------------------------------- Iteration    1(   4)  ---------------------------------------


     EDDAV:  cpu time    1.1377: real time    1.1570
       DOS:  cpu time    0.0001: real time    0.0001
    --------------------------------------------
      LOOP:  cpu time    1.1401: real time    1.1621

 eigenvalue-minimisations  :   448
 total energy-change (2. order) :-0.9950356E+01  (-0.9149080E+01)
 number of electron     121.0000000 magnetization      33.0000000
 augmentation part      121.0000000 magnetization      33.0000000

 Free energy of the ion-electron system (eV)
  ---------------------------------------------------
  alpha Z        PSCENC =        13.37344797
  Ewald energy   TEWEN  =     15161.32569691
  -Hartree energ DENC   =    -29112.51278891
  -exchange      EXHF   =         0.00000000
  -V(xc)+E(xc)   XCENC  =       503.85239352
  PAW double counting   =     13499.38897783   -14661.85464542
  entropy T*S    EENTRO =         0.00000000
  eigenvalues    EBANDS =      -719.54523107
  atomic energy  EATOM  =     15300.29143124
  Solvation  Ediel_sol  =         0.00000000
  ---------------------------------------------------
  free energy    TOTEN  =       -15.68071794 eV

  energy without entropy =      -15.68071794  energy(sigma->0) =      -15.68071794


--------------------------------------------------------------------------------------------------------




----------------------------------------- Iteration    1(   5)  ---------------------------------------


     EDDAV:  cpu time    1.1888: real time    1.1902
       DOS:  cpu time    0.0001: real time    0.0001
    CHARGE:  cpu time    0.0600: real time    0.0600
    MIXING:  cpu time    0.0072: real time    0.0073
    --------------------------------------------
      LOOP:  cpu time    1.2585: real time    1.2627

 eigenvalue-minimisations  :   480
 total energy-change (2. order) :-0.2815120E+00  (-0.2810497E+00)
 number of electron     121.0000227 magnetization      28.8097344
 augmentation part       72.0204180 magnetization      27.2003682

 Broyden mixing:
  rms(total) = 0.58350E+01    rms(broyden)= 0.58334E+01
  rms(prec ) = 0.59189E+01
  weight for this iteration     100.00

 Free energy of the ion-electron system (eV)
  ---------------------------------------------------
  alpha Z        PSCENC =        13.37344797
  Ewald energy   TEWEN  =     15161.32569691
  -Hartree energ DENC   =    -29112.51278891
  -exchange      EXHF   =         0.00000000
  -V(xc)+E(xc)   XCENC  =       503.85239352
  PAW double counting   =     13499.38897783   -14661.85464542
  entropy T*S    EENTRO =         0.00000000
  eigenvalues    EBANDS =      -719.82674307
  atomic energy  EATOM  =     15300.29143124
  Solvation  Ediel_sol  =         0.00000000
  ---------------------------------------------------
  free energy    TOTEN  =       -15.96222995 eV

  energy without entropy =      -15.96222995  energy(sigma->0) =      -15.96222995


--------------------------------------------------------------------------------------------------------




----------------------------------------- Iteration    1(   6)  ---------------------------------------


    POTLOK:  cpu time    0.2930: real time    0.2939
    SETDIJ:  cpu time    0.0074: real time    0.0074
     EDDAV:  cpu time    1.0579: real time    1.0585
       DOS:  cpu time    0.0001: real time    0.0001
    CHARGE:  cpu time    0.0567: real time    0.0567
    MIXING:  cpu time    0.0075: real time    0.0075
    --------------------------------------------
      LOOP:  cpu time    1.4255: real time    1.4300

 eigenvalue-minimisations  :   416
 total energy-change (2. order) : 0.9647782E+02  (-0.5144553E+02)
 number of electron     121.0000243 magnetization      26.2501302
 augmentation part       82.6141214 magnetization      14.8376479

 Broyden mixing:
  rms(total) = 0.24066E+01    rms(broyden)= 0.24034E+01
  rms(prec ) = 0.25405E+01
  weight for this iteration     100.00

 eigenvalues of (default mixing * dielectric matrix)
  average eigenvalue GAMMA=   0.9181
  0.9181

 Free energy of the ion-electron system (eV)
  ---------------------------------------------------
  alpha Z        PSCENC =        13.37344797
  Ewald energy   TEWEN  =     15161.32569691
  -Hartree energ DENC   =    -28816.39087220
  -exchange      EXHF   =         0.00000000
  -V(xc)+E(xc)   XCENC  =       559.07686158
  PAW double counting   =     13495.24563313   -14604.58331143
  entropy T*S    EENTRO =         0.00000000
  eigenvalues    EBANDS =     -1027.82329650
  atomic energy  EATOM  =     15300.29143124
  Solvation  Ediel_sol  =         0.00000000
  ---------------------------------------------------
  free energy    TOTEN  =        80.51559070 eV

  energy without entropy =       80.51559070  energy(sigma->0) =       80.51559070


--------------------------------------------------------------------------------------------------------




----------------------------------------- Iteration    1(   7)  ---------------------------------------


    POTLOK:  cpu time    0.2912: real time    0.2918
    SETDIJ:  cpu time    0.0070: real time    0.0070
     EDDAV:  cpu time    1.1489: real time    1.1496
       DOS:  cpu time    0.0001: real time    0.0001
    CHARGE:  cpu time    0.0568: real time    0.0568
    MIXING:  cpu time    0.0076: real time    0.0076
    --------------------------------------------
      LOOP:  cpu time    1.5148: real time    1.5189

 eigenvalue-minimisations  :   464
 total energy-change (2. order) :-0.2304610E+02  (-0.2029224E+02)
 number of electron     121.0000243 magnetization      23.1348142
 augmentation part       79.1100488 magnetization      13.1503059

 Broyden mixing:
  rms(total) = 0.12173E+01    rms(broyden)= 0.12165E+01
  rms(prec ) = 0.12611E+01
  weight for this iteration     100.00

 eigenvalues of (default mixing * dielectric matrix)
  average eigenvalue GAMMA=   0.8758
  1.1021  0.6496

 Free energy of the ion-electron system (eV)
  ---------------------------------------------------
  alpha Z        PSCENC =        13.37344797
  Ewald energy   TEWEN  =     15161.32569691
  -Hartree energ DENC   =    -29037.67093266
  -exchange      EXHF   =         0.00000000
  -V(xc)+E(xc)   XCENC  =       551.76202679
  PAW double counting   =     13830.86291170   -15026.13033879
  entropy T*S    EENTRO =         0.00000000
  eigenvalues    EBANDS =      -736.34475251
  atomic energy  EATOM  =     15300.29143124
  Solvation  Ediel_sol  =         0.00000000
  ---------------------------------------------------
  free energy    TOTEN  =        57.46949064 eV

  energy without entropy =       57.46949064  energy(sigma->0) =       57.46949064


--------------------------------------------------------------------------------------------------------




----------------------------------------- Iteration    1(   8)  ---------------------------------------


    POTLOK:  cpu time    0.2922: real time    0.2922
    SETDIJ:  cpu time    0.0071: real time    0.0071
     EDDAV:  cpu time    1.2457: real time    1.2482
       DOS:  cpu time    0.0001: real time    0.0001
    CHARGE:  cpu time    0.0583: real time    0.0583
    MIXING:  cpu time    0.0085: real time    0.0085
    --------------------------------------------
      LOOP:  cpu time    1.6149: real time    1.6203

 eigenvalue-minimisations  :   504
 total energy-change (2. order) : 0.5538692E+01  (-0.3335327E+01)
 number of electron     121.0000235 magnetization      20.8898506
 augmentation part       77.4581185 magnetization      10.3039983

 Broyden mixing:
  rms(total) = 0.98604E+00    rms(broyden)= 0.98556E+00
  rms(prec ) = 0.10302E+01
  weight for this iteration     100.00

 eigenvalues of (default mixing * dielectric matrix)
  average eigenvalue GAMMA=   0.8624
  1.2956  0.6458  0.6458

 Free energy of the ion-electron system (eV)
  ---------------------------------------------------
  alpha Z        PSCENC =        13.37344797
  Ewald energy   TEWEN  =     15161.32569691
  -Hartree energ DENC   =    -29124.08545142
  -exchange      EXHF   =         0.00000000
  -V(xc)+E(xc)   XCENC  =       557.87918180
  PAW double counting   =     14115.21582266   -15325.03420161
  entropy T*S    EENTRO =         0.00000000
  eigenvalues    EBANDS =      -635.95774491
  atomic energy  EATOM  =     15300.29143124
  Solvation  Ediel_sol  =         0.00000000
  ---------------------------------------------------
  free energy    TOTEN  =        63.00818263 eV

  energy without entropy =       63.00818263  energy(sigma->0) =       63.00818263


--------------------------------------------------------------------------------------------------------




----------------------------------------- Iteration    1(   9)  ---------------------------------------


    POTLOK:  cpu time    0.2926: real time    0.2933
    SETDIJ:  cpu time    0.0074: real time    0.0074
     EDDAV:  cpu time    1.0794: real time    1.0800
       DOS:  cpu time    0.0002: real time    0.0002
    CHARGE:  cpu time    0.0585: real time    0.0585
    MIXING:  cpu time    0.0086: real time    0.0087
    --------------------------------------------
      LOOP:  cpu time    1.4500: real time    1.4541

 eigenvalue-minimisations  :   424
 total energy-change (2. order) :-0.6460267E+01  (-0.6937006E+00)
 number of electron     121.0000238 magnetization      18.7465483
 augmentation part       77.6068237 magnetization       8.3355084

 Broyden mixing:
  rms(total) = 0.65234E+00    rms(broyden)= 0.65207E+00
  rms(prec ) = 0.66724E+00
  weight for this iteration     100.00

 eigenvalues of (default mixing * dielectric matrix)
  average eigenvalue GAMMA=   0.8199
  1.0984  0.8319  0.8319  0.5175

 Free energy of the ion-electron system (eV)
  ---------------------------------------------------
  alpha Z        PSCENC =        13.37344797
  Ewald energy   TEWEN  =     15161.32569691
  -Hartree energ DENC   =    -29120.47594139
  -exchange      EXHF   =         0.00000000
  -V(xc)+E(xc)   XCENC  =       551.75853935
  PAW double counting   =     14199.34166990   -15402.05636785
  entropy T*S    EENTRO =         0.00000000
  eigenvalues    EBANDS =      -647.01056052
  atomic energy  EATOM  =     15300.29143124
  Solvation  Ediel_sol  =         0.00000000
  ---------------------------------------------------
  free energy    TOTEN  =        56.54791561 eV

  energy without entropy =       56.54791561  energy(sigma->0) =       56.54791561


--------------------------------------------------------------------------------------------------------




----------------------------------------- Iteration    1(  10)  ---------------------------------------


    POTLOK:  cpu time    0.2933: real time    0.2936
    SETDIJ:  cpu time    0.0070: real time    0.0070
     EDDAV:  cpu time    1.2091: real time    1.2098
       DOS:  cpu time    0.0001: real time    0.0001
    CHARGE:  cpu time    0.0571: real time    0.0571
    MIXING:  cpu time    0.0089: real time    0.0089
    --------------------------------------------
      LOOP:  cpu time    1.5789: real time    1.5826

 eigenvalue-minimisations  :   496
 total energy-change (2. order) :-0.1892367E+02  (-0.8723535E+00)
 number of electron     121.0000237 magnetization      15.3203028
 augmentation part       78.2118466 magnetization       7.2065865

 Broyden mixing:
  rms(total) = 0.58469E+00    rms(broyden)= 0.58369E+00
  rms(prec ) = 0.60076E+00
  weight for this iteration     100.00

 eigenvalues of (default mixing * dielectric matrix)
  average eigenvalue GAMMA=   0.9101
  1.3846  1.3846  0.6584  0.6584  0.4648

 Free energy of the ion-electron system (eV)
  ---------------------------------------------------
  alpha Z        PSCENC =        13.37344797
  Ewald energy   TEWEN  =     15161.32569691
  -Hartree energ DENC   =    -29094.42115255
  -exchange      EXHF   =         0.00000000
  -V(xc)+E(xc)   XCENC  =       535.81624689
  PAW double counting   =     14201.40716426   -15390.10160694
  entropy T*S    EENTRO =         0.00000000
  eigenvalues    EBANDS =      -690.06697767
  atomic energy  EATOM  =     15300.29143124
  Solvation  Ediel_sol  =         0.00000000
  ---------------------------------------------------
  free energy    TOTEN  =        37.62425010 eV

  energy without entropy =       37.62425010  energy(sigma->0) =       37.62425010


--------------------------------------------------------------------------------------------------------




----------------------------------------- Iteration    1(  11)  ---------------------------------------


    POTLOK:  cpu time    0.2925: real time    0.2925
    SETDIJ:  cpu time    0.0071: real time    0.0071
     EDDAV:  cpu time    1.1351: real time    1.1362
       DOS:  cpu time    0.0002: real time    0.0002
    CHARGE:  cpu time    0.0572: real time    0.0572
    MIXING:  cpu time    0.0093: real time    0.0093
    --------------------------------------------
      LOOP:  cpu time    1.5043: real time    1.5084

 eigenvalue-minimisations  :   456
 total energy-change (2. order) :-0.1453353E+02  (-0.1006697E+01)
 number of electron     121.0000237 magnetization      12.5818721
 augmentation part       78.1733908 magnetization       5.1393053

 Broyden mixing:
  rms(total) = 0.42011E+00    rms(broyden)= 0.41994E+00
  rms(prec ) = 0.42981E+00
  weight for this iteration     100.00

 eigenvalues of (default mixing * dielectric matrix)
  average eigenvalue GAMMA=   1.0178
  1.8761  1.8761  0.6471  0.6471  0.5880  0.4721

 Free energy of the ion-electron system (eV)
  ---------------------------------------------------
  alpha Z        PSCENC =        13.37344797
  Ewald energy   TEWEN  =     15161.32569691
  -Hartree energ DENC   =    -29110.73208294
  -exchange      EXHF   =         0.00000000
  -V(xc)+E(xc)   XCENC  =       525.03210673
  PAW double counting   =     14275.59127472   -15457.56818502
  entropy T*S    EENTRO =         0.00000000
  eigenvalues    EBANDS =      -684.22297377
  atomic energy  EATOM  =     15300.29143124
  Solvation  Ediel_sol  =         0.00000000
  ---------------------------------------------------
  free energy    TOTEN  =        23.09071583 eV

  energy without entropy =       23.09071583  energy(sigma->0) =       23.09071583


--------------------------------------------------------------------------------------------------------




----------------------------------------- Iteration    1(  12)  ---------------------------------------


    POTLOK:  cpu time    0.2921: real time    0.2921
    SETDIJ:  cpu time    0.0071: real time    0.0071
     EDDAV:  cpu time    1.1483: real time    1.1491
       DOS:  cpu time    0.0001: real time    0.0001
    CHARGE:  cpu time    0.0585: real time    0.0585
    MIXING:  cpu time    0.0097: real time    0.0100
    --------------------------------------------
      LOOP:  cpu time    1.5189: real time    1.5226

 eigenvalue-minimisations  :   464
 total energy-change (2. order) :-0.1457146E+02  (-0.9211336E+00)
 number of electron     121.0000238 magnetization      10.7236778
 augmentation part       77.9954724 magnetization       4.0069088

 Broyden mixing:
  rms(total) = 0.31629E+00    rms(broyden)= 0.31618E+00
  rms(prec ) = 0.32718E+00
  weight for this iteration     100.00

 eigenvalues of (default mixing * dielectric matrix)
  average eigenvalue GAMMA=   1.0764
  2.2316  2.2316  0.7504  0.7504  0.6180  0.5224  0.4303

 Free energy of the ion-electron system (eV)
  ---------------------------------------------------
  alpha Z        PSCENC =        13.37344797
  Ewald energy   TEWEN  =     15161.32569691
  -Hartree energ DENC   =    -29118.34233665
  -exchange      EXHF   =         0.00000000
  -V(xc)+E(xc)   XCENC  =       513.97411388
  PAW double counting   =     14295.44051859   -15473.50228578
  entropy T*S    EENTRO =         0.00000000
  eigenvalues    EBANDS =      -684.04133289
  atomic energy  EATOM  =     15300.29143124
  Solvation  Ediel_sol  =         0.00000000
  ---------------------------------------------------
  free energy    TOTEN  =         8.51925327 eV

  energy without entropy =        8.51925327  energy(sigma->0) =        8.51925327


--------------------------------------------------------------------------------------------------------




----------------------------------------- Iteration    1(  13)  ---------------------------------------


    POTLOK:  cpu time    0.2918: real time    0.2919
    SETDIJ:  cpu time    0.0071: real time    0.0071
     EDDAV:  cpu time    1.1968: real time    1.1978
       DOS:  cpu time    0.0001: real time    0.0001
    CHARGE:  cpu time    0.0588: real time    0.0589
    MIXING:  cpu time    0.0110: real time    0.0110
    --------------------------------------------
      LOOP:  cpu time    1.5688: real time    1.5728

 eigenvalue-minimisations  :   480
 total energy-change (2. order) :-0.1311768E+02  (-0.7974221E+00)
 number of electron     121.0000236 magnetization       9.1815752
 augmentation part       77.8555572 magnetization       4.9546574

 Broyden mixing:
  rms(total) = 0.32203E+00    rms(broyden)= 0.32102E+00
  rms(prec ) = 0.33648E+00
  weight for this iteration     100.00

 eigenvalues of (default mixing * dielectric matrix)
  average eigenvalue GAMMA=   1.0159
  2.3475  2.3475  0.7826  0.7826  0.6670  0.4679  0.4679  0.2639

 Free energy of the ion-electron system (eV)
  ---------------------------------------------------
  alpha Z        PSCENC =        13.37344797
  Ewald energy   TEWEN  =     15161.32569691
  -Hartree energ DENC   =    -29112.54164697
  -exchange      EXHF   =         0.00000000
  -V(xc)+E(xc)   XCENC  =       503.77375969
  PAW double counting   =     14254.57040331   -15431.43769229
  entropy T*S    EENTRO =         0.00000000
  eigenvalues    EBANDS =      -693.95382754
  atomic energy  EATOM  =     15300.29143124
  Solvation  Ediel_sol  =         0.00000000
  ---------------------------------------------------
  free energy    TOTEN  =        -4.59842768 eV

  energy without entropy =       -4.59842768  energy(sigma->0) =       -4.59842768


--------------------------------------------------------------------------------------------------------




----------------------------------------- Iteration    1(  14)  ---------------------------------------


    POTLOK:  cpu time    0.2928: real time    0.2938
    SETDIJ:  cpu time    0.0074: real time    0.0074
     EDDAV:  cpu time    1.2168: real time    1.2178
       DOS:  cpu time    0.0002: real time    0.0002
    CHARGE:  cpu time    0.0596: real time    0.0596
    MIXING:  cpu time    0.0114: real time    0.0114
    --------------------------------------------
      LOOP:  cpu time    1.5913: real time    1.5961

 eigenvalue-minimisations  :   496
 total energy-change (2. order) :-0.4079534E+01  (-0.2208132E+00)
 number of electron     121.0000236 magnetization       6.4784359
 augmentation part       77.7180760 magnetization       2.6320862

 Broyden mixing:
  rms(total) = 0.22885E+00    rms(broyden)= 0.22873E+00
  rms(prec ) = 0.23935E+00
  weight for this iteration     100.00

 eigenvalues of (default mixing * dielectric matrix)
  average eigenvalue GAMMA=   1.1579
  3.6037  2.2782  0.8810  0.8810  0.6504  0.6504  0.5742  0.4951  0.4068

 Free energy of the ion-electron system (eV)
  ---------------------------------------------------
  alpha Z        PSCENC =        13.37344797
  Ewald energy   TEWEN  =     15161.32569691
  -Hartree energ DENC   =    -29116.09282374
  -exchange      EXHF   =         0.00000000
  -V(xc)+E(xc)   XCENC  =       500.84833577
  PAW double counting   =     14260.12841564   -15436.92098328
  entropy T*S    EENTRO =         0.00000000
  eigenvalues    EBANDS =      -691.63148255
  atomic energy  EATOM  =     15300.29143124
  Solvation  Ediel_sol  =         0.00000000
  ---------------------------------------------------
  free energy    TOTEN  =        -8.67796204 eV

  energy without entropy =       -8.67796204  energy(sigma->0) =       -8.67796204


--------------------------------------------------------------------------------------------------------




----------------------------------------- Iteration    1(  15)  ---------------------------------------


    POTLOK:  cpu time    0.2938: real time    0.2938
    SETDIJ:  cpu time    0.0071: real time    0.0071
     EDDAV:  cpu time    1.0649: real time    1.0672
       DOS:  cpu time    0.0001: real time    0.0001
    CHARGE:  cpu time    0.0568: real time    0.0568
    MIXING:  cpu time    0.0115: real time    0.0115
    --------------------------------------------
      LOOP:  cpu time    1.4375: real time    1.4427

 eigenvalue-minimisations  :   416
 total energy-change (2. order) :-0.8444726E+01  (-0.5536811E+00)
 number of electron     121.0000234 magnetization       5.0849623
 augmentation part       77.8216707 magnetization       3.5019341

 Broyden mixing:
  rms(total) = 0.28790E+00    rms(broyden)= 0.28676E+00
  rms(prec ) = 0.30375E+00
  weight for this iteration     100.00

 eigenvalues of (default mixing * dielectric matrix)
  average eigenvalue GAMMA=   1.1081
  4.1906  2.0206  0.8660  0.8660  0.7151  0.7151  0.6082  0.4728  0.4071  0.2198

 Free energy of the ion-electron system (eV)
  ---------------------------------------------------
  alpha Z        PSCENC =        13.37344797
  Ewald energy   TEWEN  =     15161.32569691
  -Hartree energ DENC   =    -29111.14358794
  -exchange      EXHF   =         0.00000000
  -V(xc)+E(xc)   XCENC  =       494.22765665
  PAW double counting   =     14232.69783477   -15408.08037010
  entropy T*S    EENTRO =         0.00000000
  eigenvalues    EBANDS =      -699.81479790
  atomic energy  EATOM  =     15300.29143124
  Solvation  Ediel_sol  =         0.00000000
  ---------------------------------------------------
  free energy    TOTEN  =       -17.12268840 eV

  energy without entropy =      -17.12268840  energy(sigma->0) =      -17.12268840


--------------------------------------------------------------------------------------------------------




----------------------------------------- Iteration    1(  16)  ---------------------------------------


    POTLOK:  cpu time    0.2920: real time    0.2920
    SETDIJ:  cpu time    0.0070: real time    0.0070
     EDDAV:  cpu time    1.2083: real time    1.2092
       DOS:  cpu time    0.0001: real time    0.0001
    CHARGE:  cpu time    0.0569: real time    0.0569
    MIXING:  cpu time    0.0121: real time    0.0121
    --------------------------------------------
      LOOP:  cpu time    1.5796: real time    1.5831

 eigenvalue-minimisations  :   496
 total energy-change (2. order) :-0.1839199E+01  (-0.9377121E-01)
 number of electron     121.0000235 magnetization       3.7686438
 augmentation part       77.7293392 magnetization       2.4131095

 Broyden mixing:
  rms(total) = 0.18314E+00    rms(broyden)= 0.18305E+00
  rms(prec ) = 0.19703E+00
  weight for this iteration     100.00

 eigenvalues of (default mixing * dielectric matrix)
  average eigenvalue GAMMA=   1.1971
  5.1772  1.8608  1.0804  1.0804  0.6868  0.6868  0.6526  0.6526  0.4388  0.4388
  0.4132

 Free energy of the ion-electron system (eV)
  ---------------------------------------------------
  alpha Z        PSCENC =        13.37344797
  Ewald energy   TEWEN  =     15161.32569691
  -Hartree energ DENC   =    -29115.66239804
  -exchange      EXHF   =         0.00000000
  -V(xc)+E(xc)   XCENC  =       493.01339615
  PAW double counting   =     14238.21242999   -15414.34986698
  entropy T*S    EENTRO =         0.00000000
  eigenvalues    EBANDS =      -695.16602421
  atomic energy  EATOM  =     15300.29143124
  Solvation  Ediel_sol  =         0.00000000
  ---------------------------------------------------
  free energy    TOTEN  =       -18.96188698 eV

  energy without entropy =      -18.96188698  energy(sigma->0) =      -18.96188698


--------------------------------------------------------------------------------------------------------




----------------------------------------- Iteration    1(  17)  ---------------------------------------


    POTLOK:  cpu time    0.2922: real time    0.2925
    SETDIJ:  cpu time    0.0071: real time    0.0071
     EDDAV:  cpu time    1.3149: real time    1.3197
       DOS:  cpu time    0.0002: real time    0.0002
    CHARGE:  cpu time    0.0566: real time    0.0566
    MIXING:  cpu time    0.0126: real time    0.0126
    --------------------------------------------
      LOOP:  cpu time    1.6869: real time    1.6943

 eigenvalue-minimisations  :   536
 total energy-change (2. order) :-0.2539046E+01  (-0.1020118E+00)
 number of electron     121.0000233 magnetization       2.6685083
 augmentation part       77.7087064 magnetization       1.5325381

 Broyden mixing:
  rms(total) = 0.13292E+00    rms(broyden)= 0.13289E+00
  rms(prec ) = 0.14777E+00
  weight for this iteration     100.00

 eigenvalues of (default mixing * dielectric matrix)
  average eigenvalue GAMMA=   1.2660
  5.9874  1.8748  1.3155  1.3155  0.7866  0.7866  0.6827  0.6827  0.5066  0.4536
  0.3998  0.3998

 Free energy of the ion-electron system (eV)
  ---------------------------------------------------
  alpha Z        PSCENC =        13.37344797
  Ewald energy   TEWEN  =     15161.32569691
  -Hartree energ DENC   =    -29112.65999921
  -exchange      EXHF   =         0.00000000
  -V(xc)+E(xc)   XCENC  =       490.97267788
  PAW double counting   =     14222.67527679   -15399.09592531
  entropy T*S    EENTRO =         0.00000000
  eigenvalues    EBANDS =      -698.38353889
  atomic energy  EATOM  =     15300.29143124
  Solvation  Ediel_sol  =         0.00000000
  ---------------------------------------------------
  free energy    TOTEN  =       -21.50093263 eV

  energy without entropy =      -21.50093263  energy(sigma->0) =      -21.50093263


--------------------------------------------------------------------------------------------------------




----------------------------------------- Iteration    1(  18)  ---------------------------------------


    POTLOK:  cpu time    0.2919: real time    0.2925
    SETDIJ:  cpu time    0.0072: real time    0.0072
     EDDAV:  cpu time    1.2759: real time    1.2768
       DOS:  cpu time    0.0001: real time    0.0001
    CHARGE:  cpu time    0.0566: real time    0.0566
    MIXING:  cpu time    0.0134: real time    0.0134
    --------------------------------------------
      LOOP:  cpu time    1.6482: real time    1.6525

 eigenvalue-minimisations  :   532
 total energy-change (2. order) :-0.2199886E+01  (-0.6270369E-01)
 number of electron     121.0000234 magnetization       2.0252986
 augmentation part       77.7087123 magnetization       1.0357815

 Broyden mixing:
  rms(total) = 0.78377E-01    rms(broyden)= 0.78345E-01
  rms(prec ) = 0.86313E-01
  weight for this iteration     100.00

 eigenvalues of (default mixing * dielectric matrix)
  average eigenvalue GAMMA=   1.2823
  6.3009  1.9297  1.4742  1.4742  0.8039  0.8039  0.7448  0.7448  0.6366  0.4689
  0.4689  0.4096  0.4096

 Free energy of the ion-electron system (eV)
  ---------------------------------------------------
  alpha Z        PSCENC =        13.37344797
  Ewald energy   TEWEN  =     15161.32569691
  -Hartree energ DENC   =    -29104.63340433
  -exchange      EXHF   =         0.00000000
  -V(xc)+E(xc)   XCENC  =       488.95529631
  PAW double counting   =     14191.90117408   -15369.02012085
  entropy T*S    EENTRO =         0.00000000
  eigenvalues    EBANDS =      -705.89434015
  atomic energy  EATOM  =     15300.29143124
  Solvation  Ediel_sol  =         0.00000000
  ---------------------------------------------------
  free energy    TOTEN  =       -23.70081882 eV

  energy without entropy =      -23.70081882  energy(sigma->0) =      -23.70081882


--------------------------------------------------------------------------------------------------------




----------------------------------------- Iteration    1(  19)  ---------------------------------------


    POTLOK:  cpu time    0.2924: real time    0.2924
    SETDIJ:  cpu time    0.0071: real time    0.0071
     EDDAV:  cpu time    1.0995: real time    1.1005
       DOS:  cpu time    0.0001: real time    0.0001
    CHARGE:  cpu time    0.0566: real time    0.0566
    MIXING:  cpu time    0.0141: real time    0.0141
    --------------------------------------------
      LOOP:  cpu time    1.4730: real time    1.4769

 eigenvalue-minimisations  :   432
 total energy-change (2. order) :-0.1245775E+01  (-0.2571839E-01)
 number of electron     121.0000234 magnetization       1.6245176
 augmentation part       77.6950894 magnetization       0.6891541

 Broyden mixing:
  rms(total) = 0.47828E-01    rms(broyden)= 0.47813E-01
  rms(prec ) = 0.54830E-01
  weight for this iteration     100.00

 eigenvalues of (default mixing * dielectric matrix)
  average eigenvalue GAMMA=   1.3313
  6.7783  2.5290  1.4991  1.4991  0.9175  0.9175  0.7577  0.7577  0.6252  0.6252
  0.4644  0.4644  0.4018  0.4018

 Free energy of the ion-electron system (eV)
  ---------------------------------------------------
  alpha Z        PSCENC =        13.37344797
  Ewald energy   TEWEN  =     15161.32569691
  -Hartree energ DENC   =    -29098.48779669
  -exchange      EXHF   =         0.00000000
  -V(xc)+E(xc)   XCENC  =       487.79680181
  PAW double counting   =     14176.16311269   -15354.17795327
  entropy T*S    EENTRO =         0.00000000
  eigenvalues    EBANDS =      -711.23133431
  atomic energy  EATOM  =     15300.29143124
  Solvation  Ediel_sol  =         0.00000000
  ---------------------------------------------------
  free energy    TOTEN  =       -24.94659366 eV

  energy without entropy =      -24.94659366  energy(sigma->0) =      -24.94659366


--------------------------------------------------------------------------------------------------------




----------------------------------------- Iteration    1(  20)  ---------------------------------------


    POTLOK:  cpu time    0.2924: real time    0.2925
    SETDIJ:  cpu time    0.0069: real time    0.0069
     EDDAV:  cpu time    1.2218: real time    1.2225
       DOS:  cpu time    0.0001: real time    0.0001
    CHARGE:  cpu time    0.0569: real time    0.0569
    MIXING:  cpu time    0.0150: real time    0.0150
    --------------------------------------------
      LOOP:  cpu time    1.5964: real time    1.6000

 eigenvalue-minimisations  :   504
 total energy-change (2. order) :-0.7825674E+00  (-0.7994330E-02)
 number of electron     121.0000234 magnetization       1.3592495
 augmentation part       77.7000410 magnetization       0.4532198

 Broyden mixing:
  rms(total) = 0.32107E-01    rms(broyden)= 0.32095E-01
  rms(prec ) = 0.37445E-01
  weight for this iteration     100.00

 eigenvalues of (default mixing * dielectric matrix)
  average eigenvalue GAMMA=   1.3466
  6.9634  2.8223  1.5108  1.5108  1.4536  0.7795  0.7795  0.7796  0.6791  0.6791
  0.4955  0.4659  0.4659  0.4068  0.4068

 Free energy of the ion-electron system (eV)
  ---------------------------------------------------
  alpha Z        PSCENC =        13.37344797
  Ewald energy   TEWEN  =     15161.32569691
  -Hartree energ DENC   =    -29092.29259154
  -exchange      EXHF   =         0.00000000
  -V(xc)+E(xc)   XCENC  =       486.98676027
  PAW double counting   =     14163.58686078   -15342.01203569
  entropy T*S    EENTRO =         0.00000000
  eigenvalues    EBANDS =      -716.98873098
  atomic energy  EATOM  =     15300.29143124
  Solvation  Ediel_sol  =         0.00000000
  ---------------------------------------------------
  free energy    TOTEN  =       -25.72916104 eV

  energy without entropy =      -25.72916104  energy(sigma->0) =      -25.72916104


--------------------------------------------------------------------------------------------------------




----------------------------------------- Iteration    1(  21)  ---------------------------------------


    POTLOK:  cpu time    0.2924: real time    0.2928
    SETDIJ:  cpu time    0.0069: real time    0.0070
     EDDAV:  cpu time    1.2231: real time    1.2251
       DOS:  cpu time    0.0001: real time    0.0001
    CHARGE:  cpu time    0.0569: real time    0.0569
    MIXING:  cpu time    0.0159: real time    0.0159
    --------------------------------------------
      LOOP:  cpu time    1.5985: real time    1.6039

 eigenvalue-minimisations  :   504
 total energy-change (2. order) :-0.5375303E+00  (-0.3282968E-02)
 number of electron     121.0000234 magnetization       1.2245031
 augmentation part       77.6997877 magnetization       0.3297088

 Broyden mixing:
  rms(total) = 0.17399E-01    rms(broyden)= 0.17391E-01
  rms(prec ) = 0.21512E-01
  weight for this iteration     100.00

 eigenvalues of (default mixing * dielectric matrix)
  average eigenvalue GAMMA=   1.3874
  7.2346  3.0143  2.2017  1.5014  1.5014  0.7867  0.7867  0.8040  0.8040  0.6819
  0.6819  0.4067  0.4067  0.4693  0.4693  0.4469

 Free energy of the ion-electron system (eV)
  ---------------------------------------------------
  alpha Z        PSCENC =        13.37344797
  Ewald energy   TEWEN  =     15161.32569691
  -Hartree energ DENC   =    -29087.54843359
  -exchange      EXHF   =         0.00000000
  -V(xc)+E(xc)   XCENC  =       486.42499200
  PAW double counting   =     14158.61478938   -15337.37706708
  entropy T*S    EENTRO =         0.00000000
  eigenvalues    EBANDS =      -721.37154820
  atomic energy  EATOM  =     15300.29143124
  Solvation  Ediel_sol  =         0.00000000
  ---------------------------------------------------
  free energy    TOTEN  =       -26.26669138 eV

  energy without entropy =      -26.26669138  energy(sigma->0) =      -26.26669138


--------------------------------------------------------------------------------------------------------




----------------------------------------- Iteration    1(  22)  ---------------------------------------


    POTLOK:  cpu time    0.2967: real time    0.2970
    SETDIJ:  cpu time    0.0096: real time    0.0096
     EDDAV:  cpu time    1.1294: real time    1.1301
       DOS:  cpu time    0.0001: real time    0.0001
    CHARGE:  cpu time    0.0606: real time    0.0606
    MIXING:  cpu time    0.0184: real time    0.0184
    --------------------------------------------
      LOOP:  cpu time    1.5178: real time    1.5216

 eigenvalue-minimisations  :   448
 total energy-change (2. order) :-0.2942377E+00  (-0.1077028E-02)
 number of electron     121.0000234 magnetization       1.1138481
 augmentation part       77.7022677 magnetization       0.2157504

 Broyden mixing:
  rms(total) = 0.10372E-01    rms(broyden)= 0.10367E-01
  rms(prec ) = 0.13230E-01
  weight for this iteration     100.00

 eigenvalues of (default mixing * dielectric matrix)
  average eigenvalue GAMMA=   1.4006
  7.4285  3.5314  1.9625  1.5222  1.5222  1.2518  0.7811  0.7811  0.7918  0.7081
  0.7081  0.6237  0.4042  0.4042  0.4577  0.4577  0.4731

 Free energy of the ion-electron system (eV)
  ---------------------------------------------------
  alpha Z        PSCENC =        13.37344797
  Ewald energy   TEWEN  =     15161.32569691
  -Hartree energ DENC   =    -29083.50289146
  -exchange      EXHF   =         0.00000000
  -V(xc)+E(xc)   XCENC  =       486.09796367
  PAW double counting   =     14158.47843004   -15337.34596250
  entropy T*S    EENTRO =         0.00000000
  eigenvalues    EBANDS =      -725.27904491
  atomic energy  EATOM  =     15300.29143124
  Solvation  Ediel_sol  =         0.00000000
  ---------------------------------------------------
  free energy    TOTEN  =       -26.56092904 eV

  energy without entropy =      -26.56092904  energy(sigma->0) =      -26.56092904


--------------------------------------------------------------------------------------------------------




----------------------------------------- Iteration    1(  23)  ---------------------------------------


    POTLOK:  cpu time    0.2930: real time    0.2931
    SETDIJ:  cpu time    0.0074: real time    0.0074
     EDDAV:  cpu time    1.2082: real time    1.2093
       DOS:  cpu time    0.0001: real time    0.0001
    CHARGE:  cpu time    0.0572: real time    0.0572
    MIXING:  cpu time    0.0178: real time    0.0178
    --------------------------------------------
      LOOP:  cpu time    1.5870: real time    1.5909

 eigenvalue-minimisations  :   496
 total energy-change (2. order) :-0.1061116E+00  (-0.3513214E-03)
 number of electron     121.0000234 magnetization       1.0474542
 augmentation part       77.7071640 magnetization       0.1513801

 Broyden mixing:
  rms(total) = 0.57329E-02    rms(broyden)= 0.57288E-02
  rms(prec ) = 0.79518E-02
  weight for this iteration     100.00

 eigenvalues of (default mixing * dielectric matrix)
  average eigenvalue GAMMA=   1.4051
  7.5607  3.5707  2.2991  1.6649  1.4286  1.4286  0.7758  0.7758  0.8119  0.8119
  0.6854  0.6854  0.5981  0.4044  0.4044  0.4531  0.4531  0.4805

 Free energy of the ion-electron system (eV)
  ---------------------------------------------------
  alpha Z        PSCENC =        13.37344797
  Ewald energy   TEWEN  =     15161.32569691
  -Hartree energ DENC   =    -29080.81171281
  -exchange      EXHF   =         0.00000000
  -V(xc)+E(xc)   XCENC  =       485.96210717
  PAW double counting   =     14157.79015410   -15336.70201873
  entropy T*S    EENTRO =         0.00000000
  eigenvalues    EBANDS =      -727.89614651
  atomic energy  EATOM  =     15300.29143124
  Solvation  Ediel_sol  =         0.00000000
  ---------------------------------------------------
  free energy    TOTEN  =       -26.66704066 eV

  energy without entropy =      -26.66704066  energy(sigma->0) =      -26.66704066


--------------------------------------------------------------------------------------------------------




----------------------------------------- Iteration    1(  24)  ---------------------------------------


    POTLOK:  cpu time    0.2918: real time    0.2918
    SETDIJ:  cpu time    0.0070: real time    0.0070
     EDDAV:  cpu time    1.2059: real time    1.2068
       DOS:  cpu time    0.0001: real time    0.0001
    CHARGE:  cpu time    0.0568: real time    0.0568
    MIXING:  cpu time    0.0190: real time    0.0190
    --------------------------------------------
      LOOP:  cpu time    1.5839: real time    1.5877

 eigenvalue-minimisations  :   492
 total energy-change (2. order) :-0.2701114E-01  (-0.1374219E-03)
 number of electron     121.0000234 magnetization       1.0377761
 augmentation part       77.7102621 magnetization       0.1464203

 Broyden mixing:
  rms(total) = 0.39444E-02    rms(broyden)= 0.39427E-02
  rms(prec ) = 0.56812E-02
  weight for this iteration     100.00

 eigenvalues of (default mixing * dielectric matrix)
  average eigenvalue GAMMA=   1.4095
  7.5236  3.2640  3.2640  1.5488  1.5488  1.2539  1.2539  0.7817  0.7817  0.7972
  0.6901  0.6901  0.5979  0.5979  0.4038  0.4038  0.4510  0.4510  0.4772

 Free energy of the ion-electron system (eV)
  ---------------------------------------------------
  alpha Z        PSCENC =        13.37344797
  Ewald energy   TEWEN  =     15161.32569691
  -Hartree energ DENC   =    -29079.56737719
  -exchange      EXHF   =         0.00000000
  -V(xc)+E(xc)   XCENC  =       485.92053092
  PAW double counting   =     14159.52714228   -15338.39011955
  entropy T*S    EENTRO =         0.00000000
  eigenvalues    EBANDS =      -729.17480437
  atomic energy  EATOM  =     15300.29143124
  Solvation  Ediel_sol  =         0.00000000
  ---------------------------------------------------
  free energy    TOTEN  =       -26.69405180 eV

  energy without entropy =      -26.69405180  energy(sigma->0) =      -26.69405180


--------------------------------------------------------------------------------------------------------




----------------------------------------- Iteration    1(  25)  ---------------------------------------


    POTLOK:  cpu time    0.2933: real time    0.2938
    SETDIJ:  cpu time    0.0071: real time    0.0071
     EDDAV:  cpu time    1.1640: real time    1.1647
       DOS:  cpu time    0.0001: real time    0.0001
    CHARGE:  cpu time    0.0568: real time    0.0568
    MIXING:  cpu time    0.0203: real time    0.0203
    --------------------------------------------
      LOOP:  cpu time    1.5447: real time    1.5489

 eigenvalue-minimisations  :   472
 total energy-change (2. order) :-0.7701170E-02  (-0.6563592E-04)
 number of electron     121.0000234 magnetization       1.0120332
 augmentation part       77.7060319 magnetization       0.1188946

 Broyden mixing:
  rms(total) = 0.28099E-02    rms(broyden)= 0.28091E-02
  rms(prec ) = 0.42444E-02
  weight for this iteration     100.00

 eigenvalues of (default mixing * dielectric matrix)
  average eigenvalue GAMMA=   1.4158
  7.5807  3.7119  3.0077  1.9668  1.4595  1.4595  1.0392  1.0392  0.7749  0.7749
  0.7119  0.7119  0.6661  0.6661  0.5545  0.4040  0.4040  0.4531  0.4531  0.4766

 Free energy of the ion-electron system (eV)
  ---------------------------------------------------
  alpha Z        PSCENC =        13.37344797
  Ewald energy   TEWEN  =     15161.32569691
  -Hartree energ DENC   =    -29079.09671141
  -exchange      EXHF   =         0.00000000
  -V(xc)+E(xc)   XCENC  =       485.91649354
  PAW double counting   =     14162.08920219   -15340.97566118
  entropy T*S    EENTRO =         0.00000000
  eigenvalues    EBANDS =      -729.62565223
  atomic energy  EATOM  =     15300.29143124
  Solvation  Ediel_sol  =         0.00000000
  ---------------------------------------------------
  free energy    TOTEN  =       -26.70175297 eV

  energy without entropy =      -26.70175297  energy(sigma->0) =      -26.70175297


--------------------------------------------------------------------------------------------------------




----------------------------------------- Iteration    1(  26)  ---------------------------------------


    POTLOK:  cpu time    0.2914: real time    0.2917
    SETDIJ:  cpu time    0.0071: real time    0.0071
     EDDAV:  cpu time    1.2368: real time    1.2378
       DOS:  cpu time    0.0001: real time    0.0001
    CHARGE:  cpu time    0.0567: real time    0.0567
    MIXING:  cpu time    0.0216: real time    0.0216
    --------------------------------------------
      LOOP:  cpu time    1.6168: real time    1.6211

 eigenvalue-minimisations  :   512
 total energy-change (2. order) :-0.2402987E-02  (-0.4727412E-04)
 number of electron     121.0000234 magnetization       1.0145400
 augmentation part       77.7080991 magnetization       0.1228787

 Broyden mixing:
  rms(total) = 0.18055E-02    rms(broyden)= 0.18050E-02
  rms(prec ) = 0.29128E-02
  weight for this iteration     100.00

 eigenvalues of (default mixing * dielectric matrix)
  average eigenvalue GAMMA=   1.4216
  7.5671  4.0110  2.9491  2.2196  1.4582  1.4582  1.2886  0.9949  0.9949  0.7794
  0.7794  0.7017  0.7017  0.6630  0.5508  0.5508  0.4040  0.4040  0.4534  0.4534
  0.4705

 Free energy of the ion-electron system (eV)
  ---------------------------------------------------
  alpha Z        PSCENC =        13.37344797
  Ewald energy   TEWEN  =     15161.32569691
  -Hartree energ DENC   =    -29078.16556560
  -exchange      EXHF   =         0.00000000
  -V(xc)+E(xc)   XCENC  =       485.90459130
  PAW double counting   =     14162.30789940   -15341.17752154
  entropy T*S    EENTRO =         0.00000000
  eigenvalues    EBANDS =      -730.56413563
  atomic energy  EATOM  =     15300.29143124
  Solvation  Ediel_sol  =         0.00000000
  ---------------------------------------------------
  free energy    TOTEN  =       -26.70415596 eV

  energy without entropy =      -26.70415596  energy(sigma->0) =      -26.70415596


--------------------------------------------------------------------------------------------------------




----------------------------------------- Iteration    1(  27)  ---------------------------------------


    POTLOK:  cpu time    0.2922: real time    0.2923
    SETDIJ:  cpu time    0.0070: real time    0.0070
     EDDAV:  cpu time    1.2601: real time    1.2630
       DOS:  cpu time    0.0002: real time    0.0002
    CHARGE:  cpu time    0.0570: real time    0.0570
    MIXING:  cpu time    0.0233: real time    0.0233
    --------------------------------------------
      LOOP:  cpu time    1.6428: real time    1.6487

 eigenvalue-minimisations  :   524
 total energy-change (2. order) :-0.2440350E-02  (-0.2491428E-04)
 number of electron     121.0000234 magnetization       1.0111742
 augmentation part       77.7090059 magnetization       0.1183860

 Broyden mixing:
  rms(total) = 0.15326E-02    rms(broyden)= 0.15320E-02
  rms(prec ) = 0.22349E-02
  weight for this iteration     100.00

 eigenvalues of (default mixing * dielectric matrix)
  average eigenvalue GAMMA=   1.4431
  7.5488  4.3966  3.0013  2.5813  1.4839  1.4839  1.3223  1.3223  0.7772  0.7772
  0.8825  0.8825  0.6913  0.6913  0.6465  0.4040  0.4040  0.4528  0.4528  0.5403
  0.5403  0.4655

 Free energy of the ion-electron system (eV)
  ---------------------------------------------------
  alpha Z        PSCENC =        13.37344797
  Ewald energy   TEWEN  =     15161.32569691
  -Hartree energ DENC   =    -29077.39346355
  -exchange      EXHF   =         0.00000000
  -V(xc)+E(xc)   XCENC  =       485.89726410
  PAW double counting   =     14162.42916008   -15341.29964798
  entropy T*S    EENTRO =         0.00000000
  eigenvalues    EBANDS =      -731.33048507
  atomic energy  EATOM  =     15300.29143124
  Solvation  Ediel_sol  =         0.00000000
  ---------------------------------------------------
  free energy    TOTEN  =       -26.70659631 eV

  energy without entropy =      -26.70659631  energy(sigma->0) =      -26.70659631


--------------------------------------------------------------------------------------------------------




----------------------------------------- Iteration    1(  28)  ---------------------------------------


    POTLOK:  cpu time    0.2924: real time    0.2925
    SETDIJ:  cpu time    0.0071: real time    0.0071
     EDDAV:  cpu time    1.2675: real time    1.2683
       DOS:  cpu time    0.0002: real time    0.0002
    CHARGE:  cpu time    0.0567: real time    0.0567
    MIXING:  cpu time    0.0252: real time    0.0252
    --------------------------------------------
      LOOP:  cpu time    1.6522: real time    1.6561

 eigenvalue-minimisations  :   528
 total energy-change (2. order) :-0.1613698E-02  (-0.1318869E-04)
 number of electron     121.0000234 magnetization       1.0022801
 augmentation part       77.7091775 magnetization       0.1091455

 Broyden mixing:
  rms(total) = 0.13887E-02    rms(broyden)= 0.13885E-02
  rms(prec ) = 0.18059E-02
  weight for this iteration     100.00

 eigenvalues of (default mixing * dielectric matrix)
  average eigenvalue GAMMA=   1.4466
  7.5607  4.6088  3.2228  2.6222  1.4522  1.4522  1.5282  1.3834  0.9964  0.9964
  0.7783  0.7783  0.7010  0.7010  0.6482  0.5728  0.5728  0.4040  0.4040  0.4538
  0.4538  0.4694  0.5106

 Free energy of the ion-electron system (eV)
  ---------------------------------------------------
  alpha Z        PSCENC =        13.37344797
  Ewald energy   TEWEN  =     15161.32569691
  -Hartree energ DENC   =    -29076.83667257
  -exchange      EXHF   =         0.00000000
  -V(xc)+E(xc)   XCENC  =       485.89290384
  PAW double counting   =     14162.57913926   -15341.45398480
  entropy T*S    EENTRO =         0.00000000
  eigenvalues    EBANDS =      -731.88017185
  atomic energy  EATOM  =     15300.29143124
  Solvation  Ediel_sol  =         0.00000000
  ---------------------------------------------------
  free energy    TOTEN  =       -26.70821001 eV

  energy without entropy =      -26.70821001  energy(sigma->0) =      -26.70821001


--------------------------------------------------------------------------------------------------------




----------------------------------------- Iteration    1(  29)  ---------------------------------------


    POTLOK:  cpu time    0.2920: real time    0.2920
    SETDIJ:  cpu time    0.0071: real time    0.0071
     EDDAV:  cpu time    1.2213: real time    1.2220
       DOS:  cpu time    0.0001: real time    0.0001
    CHARGE:  cpu time    0.0567: real time    0.0567
    MIXING:  cpu time    0.0272: real time    0.0272
    --------------------------------------------
      LOOP:  cpu time    1.6076: real time    1.6109

 eigenvalue-minimisations  :   504
 total energy-change (2. order) :-0.1048507E-02  (-0.5270259E-05)
 number of electron     121.0000234 magnetization       0.9974669
 augmentation part       77.7083526 magnetization       0.1051271

 Broyden mixing:
  rms(total) = 0.75187E-03    rms(broyden)= 0.75164E-03
  rms(prec ) = 0.11099E-02
  weight for this iteration     100.00

 eigenvalues of (default mixing * dielectric matrix)
  average eigenvalue GAMMA=   1.4602
  7.5705  4.8905  3.5864  2.2956  2.1151  1.4172  1.4172  1.2799  1.2799  0.7795
  0.7795  0.8760  0.8760  0.6961  0.6961  0.6905  0.4040  0.4040  0.5483  0.5483
  0.4536  0.4536  0.4715  0.5160

 Free energy of the ion-electron system (eV)
  ---------------------------------------------------
  alpha Z        PSCENC =        13.37344797
  Ewald energy   TEWEN  =     15161.32569691
  -Hartree energ DENC   =    -29076.58285648
  -exchange      EXHF   =         0.00000000
  -V(xc)+E(xc)   XCENC  =       485.89156908
  PAW double counting   =     14162.59250625   -15341.48373182
  entropy T*S    EENTRO =         0.00000000
  eigenvalues    EBANDS =      -732.11732166
  atomic energy  EATOM  =     15300.29143124
  Solvation  Ediel_sol  =         0.00000000
  ---------------------------------------------------
  free energy    TOTEN  =       -26.70925851 eV

  energy without entropy =      -26.70925851  energy(sigma->0) =      -26.70925851


--------------------------------------------------------------------------------------------------------




----------------------------------------- Iteration    1(  30)  ---------------------------------------


    POTLOK:  cpu time    0.2909: real time    0.2912
    SETDIJ:  cpu time    0.0070: real time    0.0070
     EDDAV:  cpu time    1.2370: real time    1.2379
       DOS:  cpu time    0.0001: real time    0.0001
    CHARGE:  cpu time    0.0570: real time    0.0570
    MIXING:  cpu time    0.0295: real time    0.0295
    --------------------------------------------
      LOOP:  cpu time    1.6248: real time    1.6284

 eigenvalue-minimisations  :   512
 total energy-change (2. order) :-0.5385051E-03  (-0.3434925E-05)
 number of electron     121.0000234 magnetization       0.9970533
 augmentation part       77.7080860 magnetization       0.1051787

 Broyden mixing:
  rms(total) = 0.51360E-03    rms(broyden)= 0.51335E-03
  rms(prec ) = 0.75079E-03
  weight for this iteration     100.00

 eigenvalues of (default mixing * dielectric matrix)
  average eigenvalue GAMMA=   1.4887
  7.5775  5.3728  3.8362  2.4089  2.4089  1.4665  1.4665  1.4396  1.0836  1.0115
  1.0115  0.7784  0.7784  0.7775  0.7001  0.7001  0.5904  0.5904  0.4040  0.4040
  0.4535  0.4535  0.4697  0.5167  0.5167

 Free energy of the ion-electron system (eV)
  ---------------------------------------------------
  alpha Z        PSCENC =        13.37344797
  Ewald energy   TEWEN  =     15161.32569691
  -Hartree energ DENC   =    -29076.31815870
  -exchange      EXHF   =         0.00000000
  -V(xc)+E(xc)   XCENC  =       485.88976901
  PAW double counting   =     14162.54170047   -15341.44390453
  entropy T*S    EENTRO =         0.00000000
  eigenvalues    EBANDS =      -732.36977939
  atomic energy  EATOM  =     15300.29143124
  Solvation  Ediel_sol  =         0.00000000
  ---------------------------------------------------
  free energy    TOTEN  =       -26.70979702 eV

  energy without entropy =      -26.70979702  energy(sigma->0) =      -26.70979702


--------------------------------------------------------------------------------------------------------




----------------------------------------- Iteration    1(  31)  ---------------------------------------


    POTLOK:  cpu time    0.2915: real time    0.2917
    SETDIJ:  cpu time    0.0069: real time    0.0069
     EDDAV:  cpu time    1.1116: real time    1.1126
       DOS:  cpu time    0.0002: real time    0.0002
    CHARGE:  cpu time    0.0568: real time    0.0568
    MIXING:  cpu time    0.0323: real time    0.0324
    --------------------------------------------
      LOOP:  cpu time    1.5027: real time    1.5068

 eigenvalue-minimisations  :   444
 total energy-change (2. order) :-0.1307791E-03  (-0.1112779E-05)
 number of electron     121.0000234 magnetization       0.9968768
 augmentation part       77.7083094 magnetization       0.1049451

 Broyden mixing:
  rms(total) = 0.39180E-03    rms(broyden)= 0.39167E-03
  rms(prec ) = 0.55816E-03
  weight for this iteration     100.00

 eigenvalues of (default mixing * dielectric matrix)
  average eigenvalue GAMMA=   1.5087
  7.6074  5.9192  4.0111  2.5308  2.5308  1.4879  1.4879  1.3897  1.3897  1.1299
  0.7789  0.7789  0.8807  0.8807  0.7009  0.7009  0.6298  0.6298  0.4040  0.4040
  0.5454  0.5454  0.4536  0.4536  0.4753  0.4801

 Free energy of the ion-electron system (eV)
  ---------------------------------------------------
  alpha Z        PSCENC =        13.37344797
  Ewald energy   TEWEN  =     15161.32569691
  -Hartree energ DENC   =    -29076.18089894
  -exchange      EXHF   =         0.00000000
  -V(xc)+E(xc)   XCENC  =       485.88840513
  PAW double counting   =     14162.55975620   -15341.46127848
  entropy T*S    EENTRO =        -0.00000000
  eigenvalues    EBANDS =      -732.50648782
  atomic energy  EATOM  =     15300.29143124
  Solvation  Ediel_sol  =         0.00000000
  ---------------------------------------------------
  free energy    TOTEN  =       -26.70992780 eV

  energy without entropy =      -26.70992780  energy(sigma->0) =      -26.70992780


--------------------------------------------------------------------------------------------------------




----------------------------------------- Iteration    1(  32)  ---------------------------------------


    POTLOK:  cpu time    0.2910: real time    0.2910
    SETDIJ:  cpu time    0.0071: real time    0.0071
     EDDAV:  cpu time    0.9110: real time    0.9117
       DOS:  cpu time    0.0001: real time    0.0001
    CHARGE:  cpu time    0.0568: real time    0.0568
    MIXING:  cpu time    0.0345: real time    0.0345
    --------------------------------------------
      LOOP:  cpu time    1.3035: real time    1.3073

 eigenvalue-minimisations  :   336
 total energy-change (2. order) :-0.3048510E-04  (-0.5607042E-06)
 number of electron     121.0000234 magnetization       0.9974464
 augmentation part       77.7086688 magnetization       0.1055139

 Broyden mixing:
  rms(total) = 0.33394E-03    rms(broyden)= 0.33387E-03
  rms(prec ) = 0.44613E-03
  weight for this iteration     100.00

 eigenvalues of (default mixing * dielectric matrix)
  average eigenvalue GAMMA=   1.5078
  7.6031  6.2859  4.0912  2.5713  2.5713  1.5938  1.5938  1.4274  1.4274  1.0229
  0.9423  0.9423  0.7782  0.7782  0.7919  0.6998  0.6998  0.6001  0.6001  0.4040
  0.4040  0.4537  0.4537  0.5336  0.5098  0.4654  0.4654

 Free energy of the ion-electron system (eV)
  ---------------------------------------------------
  alpha Z        PSCENC =        13.37344797
  Ewald energy   TEWEN  =     15161.32569691
  -Hartree energ DENC   =    -29076.10963253
[...]
     45      -5.3768      1.00000
     46      -5.3517      1.00000
     47      -5.3051      1.00000
     48      -5.3036      1.00000
     49      -5.2378      1.00000
     50      -5.1928      1.00000
     51      -5.1716      1.00000
     52      -5.1399      1.00000
     53      -5.1356      1.00000
     54      -5.1081      1.00000
     55      -5.1053      1.00000
     56      -5.0749      1.00000
     57      -5.0500      1.00000
     58      -5.0132      1.00000
     59      -4.5705      1.00000
     60      -4.4003      1.00000
     61      -3.6603      0.00000
     62      -3.2643      0.00000
     63      -3.0433      0.00000
     64      -2.5969      0.00000
     65      -1.9454      0.00000
     66      -1.8594      0.00000
     67      -1.7621      0.00000
     68      -1.2786      0.00000
     69      -1.0296      0.00000
     70      -1.0226      0.00000
     71      -0.6435      0.00000
     72      -0.4872      0.00000
     73      -0.0930      0.00000
     74      -0.0024      0.00000
     75       0.0037      0.00000
     76       0.2236      0.00000
     77       0.4446      0.00000
     78       0.4717      0.00000
     79       0.5014      0.00000
     80       0.5330      0.00000
     81       0.5986      0.00000
     82       0.6806      0.00000
     83       0.7057      0.00000
     84       0.7825      0.00000
     85       0.8132      0.00000
     86       0.8447      0.00000
     87       0.8875      0.00000
     88       0.9040      0.00000
     89       0.9242      0.00000
     90       0.9608      0.00000
     91       0.9797      0.00000
     92       0.9998      0.00000


--------------------------------------------------------------------------------------------------------


 soft charge-density along one line, spin component           1
         0         1         2         3         4         5         6         7         8         9
 total charge-density along one line
 
 soft charge-density along one line, spin component           2
         0         1         2         3         4         5         6         7         8         9
 total charge-density along one line
 
 pseudopotential strength for first ion, spin component:           1
-10.725   0.008  -0.014  -0.009  -0.001   1.169  -0.006   0.011
  0.008 -10.721   0.002   0.018  -0.006  -0.006   1.169  -0.002
 -0.014   0.002 -10.729   0.001   0.005   0.011  -0.002   1.174
 -0.009   0.018   0.001 -10.723   0.012   0.006  -0.014  -0.000
 -0.001  -0.006   0.005   0.012 -10.719   0.001   0.005  -0.003
  1.169  -0.006   0.011   0.006   0.001   6.192   0.003  -0.007
 -0.006   1.169  -0.002  -0.014   0.005   0.003   6.189   0.001
  0.011  -0.002   1.174  -0.000  -0.003  -0.007   0.001   6.186
  0.006  -0.014  -0.000   1.169  -0.009  -0.005   0.010  -0.000
  0.001   0.005  -0.003  -0.009   1.165  -0.000  -0.003  -0.000
 -0.004  -0.001   0.002  -0.001  -0.001   0.001  -0.000  -0.002
 -0.008  -0.003   0.005  -0.002  -0.002   0.001  -0.000  -0.004
  0.023  -0.007   0.002  -0.001   0.003  -0.016   0.004  -0.001
 -0.001  -0.002  -0.009   0.024   0.000   0.001   0.000   0.005
 -0.003  -0.001  -0.013  -0.006   0.024   0.001   0.001   0.009
  0.025  -0.007   0.002  -0.001   0.003  -0.017   0.004  -0.001
 -0.001  -0.002  -0.010   0.026   0.000   0.002  -0.001   0.005
 -0.003  -0.001  -0.015  -0.007   0.026   0.000   0.002   0.009
 pseudopotential strength for first ion, spin component:           2
-10.708   0.002  -0.009  -0.001  -0.006   1.155  -0.001   0.007
  0.002 -10.697  -0.006   0.008   0.002  -0.001   1.150   0.004
 -0.009  -0.006 -10.710   0.010  -0.001   0.007   0.004   1.159
 -0.001   0.008   0.010 -10.700   0.004   0.000  -0.006  -0.007
 -0.006   0.002  -0.001   0.004 -10.700   0.004  -0.001   0.002
  1.155  -0.001   0.007   0.000   0.004   6.202  -0.000  -0.004
 -0.001   1.150   0.004  -0.006  -0.001  -0.000   6.203  -0.003
  0.007   0.004   1.159  -0.007   0.002  -0.004  -0.003   6.198
  0.000  -0.006  -0.007   1.150  -0.003  -0.001   0.004   0.004
  0.004  -0.001   0.002  -0.003   1.150  -0.003   0.001  -0.003
 -0.002  -0.001   0.002   0.000  -0.002   0.000  -0.001  -0.002
 -0.004  -0.002   0.004   0.000  -0.003   0.000  -0.001  -0.003
  0.024  -0.008   0.002  -0.000   0.003  -0.017   0.005  -0.001
 -0.000  -0.003  -0.008   0.025   0.000   0.000   0.001   0.005
 -0.004  -0.000  -0.014  -0.008   0.025   0.002   0.000   0.010
  0.027  -0.009   0.003  -0.000   0.003  -0.018   0.006  -0.001
 -0.000  -0.004  -0.009   0.028  -0.000   0.001   0.000   0.005
 -0.005  -0.000  -0.016  -0.009   0.029   0.002   0.001   0.010
 total augmentation occupancy for first ion, spin component:           1
  1.950  -0.004  -0.002  -0.005  -0.002  -0.009   0.000   0.001   0.000   0.004   0.014   0.001  -0.076  -0.014   0.002   0.034
 -0.004   1.946   0.002   0.007  -0.007   0.000  -0.016   0.001  -0.004   0.006  -0.001   0.008   0.020   0.010  -0.003  -0.011
 -0.002   0.002   1.940  -0.001  -0.004   0.001   0.001  -0.006  -0.002  -0.001  -0.005  -0.006  -0.001   0.017   0.033   0.003
 -0.005   0.007  -0.001   1.958   0.004   0.000  -0.004  -0.002  -0.014  -0.001   0.006  -0.003  -0.015  -0.060   0.015   0.000
 -0.002  -0.007  -0.004   0.004   1.958   0.004   0.006  -0.001  -0.001  -0.017   0.003   0.003  -0.006   0.001  -0.053   0.004
 -0.009   0.000   0.001   0.000   0.004   0.011  -0.002   0.000  -0.001  -0.000  -0.015   0.000  -0.028   0.004   0.001   0.001
  0.000  -0.016   0.001  -0.004   0.006  -0.002   0.007  -0.001  -0.000   0.001  -0.020   0.002   0.011  -0.003   0.000  -0.000
  0.001   0.001  -0.006  -0.002  -0.001   0.000  -0.001   0.008  -0.000  -0.002   0.008   0.001  -0.001   0.004   0.011   0.000
  0.000  -0.004  -0.002  -0.014  -0.001  -0.001  -0.000  -0.000   0.013   0.001  -0.006   0.001   0.004  -0.035   0.001  -0.000
  0.004   0.006  -0.001  -0.001  -0.017  -0.000   0.001  -0.002   0.001   0.009   0.014  -0.004   0.004  -0.006  -0.022  -0.000
  0.014  -0.001  -0.005   0.006   0.003  -0.015  -0.020   0.008  -0.006   0.014   1.632  -0.117   0.013   0.067  -0.274  -0.000
  0.001   0.008  -0.006  -0.003   0.003   0.000   0.002   0.001   0.001  -0.004  -0.117   0.012   0.003  -0.005   0.032  -0.000
 -0.076   0.020  -0.001  -0.015  -0.006  -0.028   0.011  -0.001   0.004   0.004   0.013   0.003   0.110  -0.030  -0.009  -0.007
 -0.014   0.010   0.017  -0.060   0.001   0.004  -0.003   0.004  -0.035  -0.006   0.067  -0.005  -0.030   0.144   0.005   0.001
  0.002  -0.003   0.033   0.015  -0.053   0.001   0.000   0.011   0.001  -0.022  -0.274   0.032  -0.009   0.005   0.116   0.000
  0.034  -0.011   0.003   0.000   0.004   0.001  -0.000   0.000  -0.000  -0.000  -0.000  -0.000  -0.007   0.001   0.000   0.001
  0.000  -0.004  -0.010   0.034   0.001  -0.000   0.000  -0.000   0.002   0.000  -0.008   0.001   0.001  -0.008   0.001  -0.000
 -0.004   0.000  -0.018  -0.009   0.031  -0.000  -0.000  -0.001  -0.000   0.001   0.034  -0.003   0.000   0.001  -0.011  -0.000
 total augmentation occupancy for first ion, spin component:           2
  0.001  -0.004   0.003   0.004  -0.003  -0.000   0.001  -0.001  -0.001   0.001   0.001  -0.000   0.003   0.003  -0.004   0.000
 -0.004   0.006  -0.005  -0.006   0.004   0.001  -0.002   0.001   0.002  -0.001   0.000  -0.000  -0.005  -0.005   0.006  -0.000
  0.003  -0.005   0.003   0.005  -0.003  -0.001   0.001  -0.001  -0.002   0.001  -0.000   0.000   0.004   0.003  -0.004   0.000
  0.004  -0.006   0.005   0.005  -0.004  -0.001   0.002  -0.002  -0.002   0.001   0.001  -0.000   0.006   0.004  -0.006   0.000
 -0.003   0.004  -0.003  -0.004   0.003   0.001  -0.001   0.001   0.001  -0.001  -0.001   0.000  -0.003  -0.003   0.004  -0.000
 -0.000   0.001  -0.001  -0.001   0.001   0.000  -0.000   0.000   0.000  -0.000  -0.001   0.000  -0.001  -0.001   0.001  -0.000
  0.001  -0.002   0.001   0.002  -0.001  -0.000   0.000  -0.000  -0.000   0.000   0.001  -0.000   0.001   0.001  -0.001   0.000
 -0.001   0.001  -0.001  -0.002   0.001   0.000  -0.000   0.000   0.000  -0.000  -0.000   0.000  -0.001  -0.001   0.001  -0.000
 -0.001   0.002  -0.002  -0.002   0.001   0.000  -0.000   0.000   0.000  -0.000  -0.001   0.000  -0.001  -0.001   0.002  -0.000
  0.001  -0.001   0.001   0.001  -0.001  -0.000   0.000  -0.000  -0.000   0.000   0.000  -0.000   0.001   0.001  -0.001   0.000
  0.001   0.000  -0.000   0.001  -0.001  -0.001   0.001  -0.000  -0.001   0.000  -0.003   0.000   0.001   0.000  -0.001  -0.000
 -0.000  -0.000   0.000  -0.000   0.000   0.000  -0.000   0.000   0.000  -0.000   0.000  -0.000  -0.000  -0.000  -0.000   0.000
  0.003  -0.005   0.004   0.006  -0.003  -0.001   0.001  -0.001  -0.001   0.001   0.001  -0.000   0.003   0.004  -0.005   0.000
  0.003  -0.005   0.003   0.004  -0.003  -0.001   0.001  -0.001  -0.001   0.001   0.000  -0.000   0.004   0.001  -0.004  -0.000
 -0.004   0.006  -0.004  -0.006   0.004   0.001  -0.001   0.001   0.002  -0.001  -0.001  -0.000  -0.005  -0.004   0.005  -0.000
  0.000  -0.000   0.000   0.000  -0.000  -0.000   0.000  -0.000  -0.000   0.000  -0.000   0.000   0.000  -0.000  -0.000   0.000
  0.000  -0.000   0.000   0.000  -0.000  -0.000   0.000  -0.000  -0.000   0.000  -0.000   0.000   0.000   0.000  -0.000   0.000
 -0.000   0.000  -0.000  -0.001   0.000   0.000  -0.000   0.000   0.000  -0.000   0.000   0.000  -0.000  -0.000   0.000  -0.000


------------------------ aborting loop because EDIFF is reached ----------------------------------------


 


 total charge     
 
# of ion     s       p       d       tot
----------------------------------------
  1        0.444   0.196   9.277   9.918
  2        0.428   0.273   9.245   9.945
  3        0.429   0.274   9.244   9.947
  4        0.501   0.100   9.283   9.884
  5        0.488   0.128   9.274   9.890
  6        0.488   0.128   9.274   9.890
  7        0.454   0.289   9.219   9.962
  8        0.434   0.213   9.272   9.918
  9        0.434   0.213   9.272   9.919
 10        0.501   0.100   9.283   9.884
 11        0.432   0.274   9.235   9.941
------------------------------------------------
tot        5.032   2.188 101.877 109.097
 


 magnetization (x)
 
# of ion     s       p       d       tot
----------------------------------------
  1       -0.001   0.006   0.023   0.028
  2        0.003   0.014   0.008   0.024
  3        0.003   0.014   0.008   0.024
  4        0.032   0.006   0.017   0.055
  5        0.029   0.006   0.017   0.052
  6        0.029   0.006   0.017   0.051
  7        0.017   0.006   0.011   0.034
  8        0.002   0.016   0.022   0.040
  9        0.002   0.016   0.022   0.040
 10        0.032   0.006   0.017   0.055
 11        0.017   0.005   0.025   0.046
------------------------------------------------
tot        0.164   0.101   0.185   0.449
 
    CHARGE:  cpu time    0.0587: real time    0.0587
    FORLOC:  cpu time    0.0118: real time    0.0118
    FORNL :  cpu time    0.5800: real time    0.5803
    STRESS:  cpu time    0.4956: real time    0.4958
    FORCOR:  cpu time    0.2932: real time    0.2933
    FORHAR:  cpu time    0.0396: real time    0.0401
    MIXING:  cpu time    0.0168: real time    0.0168
    OFIELD:  cpu time    0.0001: real time    0.0001

  FORCE on cell =-STRESS in cart. coord.  units (eV):
  Direction    XX          YY          ZZ          XY          YZ          ZX
  --------------------------------------------------------------------------------------
  Alpha Z    13.37345    13.37345    13.37345
  Ewald    4405.48142  4104.13528  6996.23091 -2385.50347 -1439.56549  -779.12842
  Hartree  9091.66164  8870.71059 11456.79927 -2077.10993 -1288.42674  -657.48824
  E(xc)    -705.89640  -705.98003  -705.44050    -0.60010    -0.24897    -0.23807
  Local  -14563.66870-14045.93374-19519.71508  4457.51446  2726.16000  1433.71416
  n-local  -266.98265  -266.75829  -265.40572    -1.44943    -0.73202    -0.42513
  augment  1030.68344  1032.46489  1029.42843     3.41098     1.45032     1.58935
  Kinetic   992.39124   995.03987   991.70828     3.73241     1.41348     1.98957
  Fock        0.00000     0.00000     0.00000     0.00000     0.00000     0.00000
  -------------------------------------------------------------------------------------
  Total      -2.95655    -2.94798    -3.02098    -0.00507     0.05058     0.01322
  in kB      -0.71588    -0.71381    -0.73148    -0.00123     0.01225     0.00320
  external pressure =       -0.72 kB  Pullay stress =        0.00 kB


 VOLUME and BASIS-vectors are now :
 -----------------------------------------------------------------------------
  energy-cutoff  :      295.45
  volume of cell :     6616.89
      direct lattice vectors                 reciprocal lattice vectors
    18.773766000  0.000000000  0.000000000     0.053265818  0.000000000  0.000000000
     0.000000000 18.773766000  0.000000000     0.000000000  0.053265818  0.000000000
     0.000000000  0.000000000 18.773766000     0.000000000  0.000000000  0.053265818

  length of vectors
    18.773766000 18.773766000 18.773766000     0.053265818  0.053265818  0.053265818


 FORCES acting on ions
    electron-ion (+dipol)            ewald-force                    non-local-force                 convergence-correction
 -----------------------------------------------------------------------------------------------
   -.127E+04 0.879E+01 0.286E+03   0.126E+04 -.735E+01 -.283E+03   0.858E+01 -.143E+01 -.276E+01   -.118E-04 0.200E-04 0.278E-04
   -.718E+03 -.406E+03 -.839E+03   0.715E+03 0.405E+03 0.834E+03   0.274E+01 0.370E+00 0.407E+01   -.464E-04 0.357E-04 0.103E-03
   -.481E+03 -.105E+04 0.229E+03   0.480E+03 0.104E+04 -.227E+03   0.138E+01 0.411E+01 -.225E+01   -.410E-04 0.204E-05 0.543E-04
   0.617E+03 -.104E+04 0.151E+03   -.613E+03 0.103E+04 -.151E+03   -.467E+01 0.102E+02 0.207E+00   -.120E-04 -.950E-04 -.891E-05
   -.732E+03 0.998E+03 -.331E+03   0.726E+03 -.991E+03 0.329E+03   0.584E+01 -.713E+01 0.238E+01   -.581E-05 -.103E-04 0.102E-03
   -.388E+03 0.714E+02 0.121E+04   0.384E+03 -.710E+02 -.121E+04   0.334E+01 -.382E+00 -.894E+01   -.401E-04 -.890E-04 -.877E-04
   0.241E+03 0.945E+03 0.514E+03   -.243E+03 -.943E+03 -.512E+03   0.160E+01 -.228E+01 -.176E+01   -.502E-04 -.221E-05 -.400E-04
   0.548E+03 0.968E+03 -.618E+03   -.544E+03 -.962E+03 0.615E+03   -.402E+01 -.648E+01 0.293E+01   -.261E-04 -.185E-04 0.654E-04
   0.885E+03 0.428E+02 0.912E+03   -.879E+03 -.414E+02 -.906E+03   -.586E+01 -.141E+01 -.547E+01   -.420E-04 -.394E-05 0.923E-05
   0.332E+03 -.259E+03 -.113E+04   -.330E+03 0.255E+03 0.112E+04   -.249E+01 0.419E+01 0.101E+02   0.273E-04 0.442E-04 -.184E-04
   0.961E+03 -.288E+03 -.383E+03   -.956E+03 0.287E+03 0.382E+03   -.517E+01 0.736E+00 0.153E+01   -.143E-04 0.286E-04 0.882E-04
 -----------------------------------------------------------------------------------------------
   -.126E+01 -.438E+00 -.434E-01   -.341E-12 0.171E-12 -.568E-13   0.127E+01 0.521E+00 0.745E-01   -.262E-03 -.884E-04 0.294E-03
 
 
 POSITION                                       TOTAL-FORCE (eV/Angst)
 -----------------------------------------------------------------------------------
     11.60281      9.12663      8.73573         0.010080      0.007272     -0.002820
     10.32005      9.53155     10.74776        -0.008476     -0.009136      0.008337
      9.85596     10.79132      8.64989         0.005485     -0.010176      0.011782
      7.69492     11.89563      8.62531        -0.002232      0.008457      0.017585
     10.99931      7.23689     10.23866        -0.000661      0.003677     -0.012060
     10.21463      9.36023      6.68765         0.007809      0.010889     -0.002467
      9.37109      8.21470      8.68716        -0.008129      0.005550     -0.005781
      8.71031      7.73578     10.95487         0.006056      0.002582     -0.007111
      7.96220      9.79717      7.53166         0.004729     -0.011428      0.010484
      8.51896      9.63760     12.37615        -0.014989     -0.007540      0.003755
      8.00547      9.92822     10.02088         0.000328     -0.000147     -0.021703
 -----------------------------------------------------------------------------------
    total drift:                                0.012646      0.082579      0.031334


--------------------------------------------------------------------------------------------------------



  FREE ENERGIE OF THE ION-ELECTRON SYSTEM (eV)
  ---------------------------------------------------
  free  energy   TOTEN  =       -26.96085216 eV

  energy  without entropy=      -26.96085216  energy(sigma->0) =      -26.96085216
 
 d Force = 0.4679142E-03[ 0.295E-03, 0.641E-03]  d Energy = 0.4711455E-03-0.323E-05
 d Force =-0.5581428E+01[-0.557E+01,-0.559E+01]  d Ewald  =-0.5581421E+01-0.643E-05


--------------------------------------------------------------------------------------------------------


    POTLOK:  cpu time    0.3073: real time    0.3073


--------------------------------------------------------------------------------------------------------


 Conjugate gradient step on ions:
 trial-energy change:   -0.000471  1 .order   -0.000468   -0.000641   -0.000295
  (g-gl).g = 0.296E-03      g.g   = 0.290E-03  gl.gl    = 0.445E-03
 g(Force)  = 0.290E-03   g(Stress)= 0.000E+00 ortho     = 0.898E-05
 gamma     =   0.66362
 trial     =   2.16399
 opt step  =   4.00940  (harmonic =   4.00940) maximal distance =0.00953503
 next E    =   -26.960975   (d E  =  -0.00059)


--------------------------------------------------------------------------------------------------------


  
 reached required accuracy - stopping structural energy minimisation
     LOOP+:  cpu time   24.6928: real time   24.7629
    4ORBIT:  cpu time    0.0000: real time    0.0000
 


 total charge     
 
# of ion     s       p       d       tot
----------------------------------------
  1        0.444   0.196   9.277   9.918
  2        0.428   0.273   9.245   9.945
  3        0.429   0.274   9.244   9.947
  4        0.501   0.100   9.283   9.884
  5        0.488   0.128   9.274   9.890
  6        0.488   0.128   9.274   9.890
  7        0.454   0.289   9.219   9.962
  8        0.434   0.213   9.272   9.918
  9        0.434   0.213   9.272   9.919
 10        0.501   0.100   9.283   9.884
 11        0.432   0.274   9.235   9.941
------------------------------------------------
tot        5.032   2.188 101.877 109.097
 


 magnetization (x)
 
# of ion     s       p       d       tot
----------------------------------------
  1       -0.001   0.006   0.023   0.028
  2        0.003   0.014   0.008   0.024
  3        0.003   0.014   0.008   0.024
  4        0.032   0.006   0.017   0.055
  5        0.029   0.006   0.017   0.052
  6        0.029   0.006   0.017   0.051
  7        0.017   0.006   0.011   0.034
  8        0.002   0.016   0.022   0.040
  9        0.002   0.016   0.022   0.040
 10        0.032   0.006   0.017   0.055
 11        0.017   0.005   0.025   0.046
------------------------------------------------
tot        0.164   0.101   0.185   0.449
 

 total amount of memory used by VASP on root node    64974. kBytes
========================================================================

   base      :      30000. kBytes
   nonl-proj :       2039. kBytes
   fftplans  :       7970. kBytes
   grid      :      20231. kBytes
   one-center:         31. kBytes
   wavefun   :       4703. kBytes
 
  
  
 General timing and accounting informations for this job:
 ========================================================
  
                  Total CPU time used (sec):     1457.017
                            User time (sec):     1432.707
                          System time (sec):       24.310
                         Elapsed time (sec):     1466.838
  
                   Maximum memory used (kb):      108024.
                   Average memory used (kb):           0.
  
                          Minor page faults:      4243425
                          Major page faults:            2
                 Voluntary context switches:        18162
