 vasp.5.4.1 05Feb16 (build Apr 11 2020 03:28:46) gamma-only                     
  
 executed on           IFC91_ompi date 2022.05.04  16:12:10
 running on   24 total cores
 distrk:  each k-point on   24 cores,    1 groups
 distr:  one band on NCORES_PER_BAND=   6 cores,    4 groups


--------------------------------------------------------------------------------------------------------


 INCAR:
 POTCAR:    PAW_PBE Cu 22Jun2005                  
 POTCAR:    PAW_PBE Cu 22Jun2005                  
   VRHFIN =Cu: d10 p1                                                           
   LEXCH  = PE                                                                  
   EATOM  =  1390.9808 eV,  102.2342 Ry                                         
                                                                                
   TITEL  = PAW_PBE Cu 22Jun2005                                                
   LULTRA =        F    use ultrasoft PP ?                                      
   IUNSCR =        1    unscreen: 0-lin 1-nonlin 2-no                           
   RPACOR =    2.000    partial core radius                                     
   POMASS =   63.546; ZVAL   =   11.000    mass and valenz                      
   RCORE  =    2.300    outmost cutoff radius                                   
   RWIGS  =    2.200; RWIGS  =    1.164    wigner-seitz radius (au A)           
   ENMAX  =  295.446; ENMIN  =  221.585 eV                                      
   ICORE  =        3    local potential                                         
   LCOR   =        T    correct aug charges                                     
   LPAW   =        T    paw PP                                                  
   EAUG   =  586.980                                                            
   DEXC   =    0.000                                                            
   RMAX   =    2.344    core radius for proj-oper                               
   RAUG   =    1.300    factor for augmentation sphere                          
   RDEP   =    2.302    radius for radial grids                                 
   RDEPT  =    1.771    core radius for aug-charge                              
                                                                                
   Atomic configuration                                                         
    9 entries                                                                   
     n  l   j            E        occ.                                          
     1  0  0.50     -8850.2468   2.0000                                         
     2  0  0.50     -1062.3498   2.0000                                         
     2  1  1.50      -916.8226   6.0000                                         
     3  0  0.50      -114.6929   2.0000                                         
     3  1  1.50       -72.1325   6.0000                                         
     3  2  2.50        -5.0394  10.0000                                         
     4  0  0.50        -4.6097   1.0000                                         
     4  1  0.50        -4.0817   0.0000                                         
     4  3  2.50        -1.3606   0.0000                                         
   Description                                                                  
     l       E           TYP  RCUT    TYP  RCUT                                 
     2     -5.0393973     23  2.200                                             
     2     10.8846608     23  2.200                                             
     0     -4.6097109     23  2.200                                             
     0      8.2520465     23  2.200                                             
     1     -2.7211652     23  2.200                                             
     1     21.7055443     23  2.200                                             
     3      2.7211652     23  2.300                                             
  local pseudopotential read in
  partial core-charges read in
  partial kinetic energy density read in
  atomic valenz-charges read in
  non local Contribution for L=           2  read in
    real space projection operators read in
  non local Contribution for L=           2  read in
    real space projection operators read in
  non local Contribution for L=           0  read in
    real space projection operators read in
  non local Contribution for L=           0  read in
    real space projection operators read in
  non local Contribution for L=           1  read in
    real space projection operators read in
  non local Contribution for L=           1  read in
    real space projection operators read in
    PAW grid and wavefunctions read in
 
   number of l-projection  operators is LMAX  =           6
   number of lm-projection operators is LMMAX =          18
 
  PAW_PBE Cu 22Jun2005                  :
 energy of atom  1       EATOM=-1390.9808
 kinetic energy error for atom=    0.0452 (will be added to EATOM!!)
 
 
 POSCAR: unknown system                          
  positions in direct lattice
  velocities in cartesian coordinates
 exchange correlation table for  LEXCH =        8
   RHO(1)=    0.500       N(1)  =     2000
   RHO(2)=  100.500       N(2)  =     4000
 


--------------------------------------------------------------------------------------------------------


 ion  position               nearest neighbor table
   1  0.513  0.463  0.540-   3 2.36   4 2.36   2 2.43  11 2.45   8 2.45   9 2.46   5 2.57  10 2.62
                             6 2.66   7 2.70
   2  0.527  0.444  0.656-   5 2.40   1 2.43   3 2.47   4 2.50
   3  0.419  0.436  0.601-   1 2.36  10 2.43   2 2.47   5 2.52   8 2.61
   4  0.588  0.531  0.596-   1 2.36   5 2.48   6 2.49   2 2.50   9 2.63
   5  0.472  0.544  0.627-  10 2.36   2 2.40   6 2.45   4 2.48   3 2.52   1 2.57
   6  0.511  0.592  0.525-   5 2.45   7 2.46   9 2.48  10 2.49   4 2.49  12 2.50   1 2.66
   7  0.470  0.527  0.432-  14 2.37  12 2.39  13 2.41   8 2.44   6 2.46  10 2.46  11 2.54   9 2.57
                             1 2.70
   8  0.420  0.427  0.474-   7 2.44   1 2.45  14 2.50  10 2.50  11 2.55   3 2.61
   9  0.591  0.521  0.468-  11 2.44  12 2.45   1 2.46  13 2.48   6 2.48   7 2.57   4 2.63
  10  0.405  0.532  0.533-   5 2.36   3 2.43   7 2.46   6 2.49   8 2.50   1 2.62
  11  0.536  0.421  0.430-  13 2.38  14 2.41   9 2.44   1 2.45   7 2.54   8 2.55
  12  0.545  0.614  0.409-   7 2.39   9 2.45  13 2.50   6 2.50
  13  0.555  0.506  0.353-  11 2.38   7 2.41   9 2.48  12 2.50  14 2.56
  14  0.447  0.443  0.356-   7 2.37  11 2.41   8 2.50  13 2.56
 
  LATTYP: Found a simple cubic cell.
 ALAT       =    20.4656130000
  
  Lattice vectors:
  
 A1 = (  20.4656130000,   0.0000000000,   0.0000000000)
 A2 = (   0.0000000000,  20.4656130000,   0.0000000000)
 A3 = (   0.0000000000,   0.0000000000,  20.4656130000)


Analysis of symmetry for initial positions (statically):
=====================================================================
 Subroutine PRICEL returns:
 Original cell was already a primitive cell.
 

 Routine SETGRP: Setting up the symmetry group for a 
 simple cubic supercell.


 Subroutine GETGRP returns: Found  1 space group operations
 (whereof  1 operations were pure point group operations)
 out of a pool of 48 trial point group operations.


The static configuration has the point symmetry C_1 .


Analysis of symmetry for dynamics (positions and initial velocities):
=====================================================================
 Subroutine PRICEL returns:
 Original cell was already a primitive cell.
 

 Routine SETGRP: Setting up the symmetry group for a 
 simple cubic supercell.


 Subroutine GETGRP returns: Found  1 space group operations
 (whereof  1 operations were pure point group operations)
 out of a pool of 48 trial point group operations.


The dynamic configuration has the point symmetry C_1 .


Analysis of structural, dynamic, and magnetic symmetry:
=====================================================================
 Subroutine PRICEL returns:
 Original cell was already a primitive cell.
 

 Routine SETGRP: Setting up the symmetry group for a 
 simple cubic supercell.


 Subroutine GETGRP returns: Found  1 space group operations
 (whereof  1 operations were pure point group operations)
 out of a pool of 48 trial point group operations.


The magnetic configuration has the point symmetry C_1 .


 Subroutine INISYM returns: Found  1 space group operations
 (whereof  1 operations are pure point group operations),
 and found     1 'primitive' translations

 
 
 KPOINTS: Gamma-point only                        
  k-points in reciprocal lattice
Space group operators:
 irot       det(A)        alpha          n_x          n_y          n_z        tau_x        tau_y        tau_z
    1     1.000000     0.000000     1.000000     0.000000     0.000000     0.000000     0.000000     0.000000


--------------------------------------------------------------------------------------------------------




 Dimension of arrays:
   k-points           NKPTS =      1   k-points in BZ     NKDIM =      1   number of bands    NBANDS=    100
   number of dos      NEDOS =    301   number of ions     NIONS =     14
   non local maximal  LDIM  =      6   non local SUM 2l+1 LMDIM =     18
   total plane-waves  NPLWV = 729000
   max r-space proj   IRMAX =      1   max aug-charges    IRDMAX=   2663
   dimension x,y,z NGX =    90 NGY =   90 NGZ =   90
   dimension x,y,z NGXF=   180 NGYF=  180 NGZF=  180
   support grid    NGXF=   180 NGYF=  180 NGZF=  180
   ions per type =              14
 NGX,Y,Z   is equivalent  to a cutoff of   7.31,  7.31,  7.31 a.u.
 NGXF,Y,Z  is equivalent  to a cutoff of  14.62, 14.62, 14.62 a.u.


 I would recommend the setting:
   dimension x,y,z NGX =    86 NGY =   86 NGZ =   86
 SYSTEM =  unknown system                          
 POSCAR =  unknown system                          

 Startparameter for this run:
   NWRITE =      2    write-flag & timer
   PREC   = normal    normal or accurate (medium, high low for compatibility)
   ISTART =      0    job   : 0-new  1-cont  2-samecut
   ICHARG =      2    charge: 1-file 2-atom 10-const
   ISPIN  =      2    spin polarized calculation?
   LNONCOLLINEAR =      F non collinear calculations
   LSORBIT =      F    spin-orbit coupling
   INIWAV =      1    electr: 0-lowe 1-rand  2-diag
   LASPH  =      F    aspherical Exc in radial PAW
   METAGGA=      F    non-selfconsistent MetaGGA calc.

 Electronic Relaxation 1
   ENCUT  =  295.4 eV  21.71 Ry    4.66 a.u.  28.68 28.68 28.68*2*pi/ulx,y,z
   ENINI  =  295.4     initial cutoff
   ENAUG  =  587.0 eV  augmentation charge cutoff
   NELM   =     60;   NELMIN=  2; NELMDL= -5     # of ELM steps 
   EDIFF  = 0.1E-05   stopping-criterion for ELM
   LREAL  =      F    real-space projection
   NLSPLINE    = F    spline interpolate recip. space projectors
   LCOMPAT=      F    compatible to vasp.4.4
   GGA_COMPAT  = T    GGA compatible to vasp.4.4-vasp.4.6
   LMAXPAW     = -100 max onsite density
   LMAXMIX     =    2 max onsite mixed and CHGCAR
   VOSKOWN=      0    Vosko Wilk Nusair interpolation
   ROPT   =    0.00000
 Ionic relaxation
   EDIFFG = -.3E-01   stopping-criterion for IOM
   NSW    =    101    number of steps for IOM
   NBLOCK =      1;   KBLOCK =    101    inner block; outer block 
   IBRION =      2    ionic relax: 0-MD 1-quasi-New 2-CG
   NFREE  =      1    steps in history (QN), initial steepest desc. (CG)
   ISIF   =      2    stress and relaxation
   IWAVPR =     11    prediction:  0-non 1-charg 2-wave 3-comb
   ISYM   =      2    0-nonsym 1-usesym 2-fastsym
   LCORR  =      T    Harris-Foulkes like correction to forces

   POTIM  = 0.5000    time-step for ionic-motion
   TEIN   =    0.0    initial temperature
   TEBEG  =    0.0;   TEEND  =   0.0 temperature during run
   SMASS  =  -3.00    Nose mass-parameter (am)
   estimated Nose-frequenzy (Omega)   =  0.10E-29 period in steps =****** mass=  -0.957E-26a.u.
   SCALEE = 1.0000    scale energy and forces
   NPACO  =    256;   APACO  = 16.0  distance and # of slots for P.C.
   PSTRESS=    0.0 pullay stress

  Mass of Ions in am
   POMASS =  63.55
  Ionic Valenz
   ZVAL   =  11.00
  Atomic Wigner-Seitz radii
   RWIGS  =  -1.00
  virtual crystal weights 
   VCA    =   1.00
   NELECT =     154.0000    total number of electrons
   NUPDOWN=      -1.0000    fix difference up-down

 DOS related values:
   EMIN   =  10.00;   EMAX   =-10.00  energy-range for DOS
   EFERMI =   0.00
   ISMEAR =     0;   SIGMA  =   0.00  broadening in eV -4-tet -1-fermi 0-gaus

 Electronic relaxation 2 (details)
   IALGO  =     38    algorithm
   LDIAG  =      T    sub-space diagonalisation (order eigenvalues)
   LSUBROT=      F    optimize rotation matrix (better conditioning)
   TURBO    =      0    0=normal 1=particle mesh
   IRESTART =      0    0=no restart 2=restart with 2 vectors
   NREBOOT  =      0    no. of reboots
   NMIN     =      0    reboot dimension
   EREF     =   0.00    reference energy to select bands
   IMIX   =      4    mixing-type and parameters
     AMIX     =   0.40;   BMIX     =  1.00
     AMIX_MAG =   1.60;   BMIX_MAG =  1.00
     AMIN     =   0.10
     WC   =   100.;   INIMIX=   1;  MIXPRE=   1;  MAXMIX= -45

 Intra band minimization:
   WEIMIN = 0.0010     energy-eigenvalue tresh-hold
   EBREAK =  0.25E-08  absolut break condition
   DEPER  =   0.30     relativ break condition  

   TIME   =   0.40     timestep for ELM

  volume/ion in A,a.u.               =     612.27      4131.83
  Fermi-wavevector in a.u.,A,eV,Ry     =   0.428769  0.810256  2.501337  0.183843
  Thomas-Fermi vector in A             =   1.396258
 
 Write flags
   LWAVE  =      F    write WAVECAR
   LCHARG =      F    write CHGCAR
   LVTOT  =      F    write LOCPOT, total local potential
   LVHAR  =      F    write LOCPOT, Hartree potential only
   LELF   =      F    write electronic localiz. function (ELF)
   LORBIT =     11    0 simple, 1 ext, 2 COOP (PROOUT)


 Dipole corrections
   LMONO  =      F    monopole corrections only (constant potential shift)
   LDIPOL =      F    correct potential (dipole corrections)
   IDIPOL =      0    1-x, 2-y, 3-z, 4-all directions 
   EPSILON=  1.0000000 bulk dielectric constant

 Exchange correlation treatment:
   GGA     =    PE    GGA type
   LEXCH   =     8    internal setting for exchange type
   VOSKOWN=      0    Vosko Wilk Nusair interpolation
   LHFCALC =     F    Hartree Fock is set to
   LHFONE  =     F    Hartree Fock one center treatment
   AEXX    =    0.0000 exact exchange contribution

 Linear response parameters
   LEPSILON=     F    determine dielectric tensor
   LRPA    =     F    only Hartree local field effects (RPA)
   LNABLA  =     F    use nabla operator in PAW spheres
   LVEL    =     F    velocity operator in full k-point grid
   LINTERFAST=   F  fast interpolation
   KINTER  =     0    interpolate to denser k-point grid
   CSHIFT  =0.1000    complex shift for real part using Kramers Kronig
   OMEGAMAX=  -1.0    maximum frequency
   DEG_THRESHOLD= 0.2000000E-02 threshold for treating states as degnerate
   RTIME   =    0.100 relaxation time in fs

 Orbital magnetization related:
   ORBITALMAG=     F  switch on orbital magnetization
   LCHIMAG   =     F  perturbation theory with respect to B field
   DQ        =  0.001000  dq finite difference perturbation B field



--------------------------------------------------------------------------------------------------------


 conjugate gradient relaxation of ions
 charge density and potential will be updated during run
 spin polarized calculation
 Variant of blocked Davidson
 Davidson routine will perform the subspace rotation
 perform sub-space diagonalisation
    after iterative eigenvector-optimisation
 modified Broyden-mixing scheme, WC =      100.0
 initial mixing is a Kerker type mixing with AMIX =  0.4000 and BMIX =      1.0000
 Hartree-type preconditioning will be used
 using additional bands           23
 reciprocal scheme for non local part
 use partial core corrections
 calculate Harris-corrections to forces 
   (improved forces if not selfconsistent)
 use gradient corrections 
 use of overlap-Matrix (Vanderbilt PP)
 Gauss-broadening in eV      SIGMA  =   0.00


--------------------------------------------------------------------------------------------------------


  energy-cutoff  :      295.45
  volume of cell :     8571.84
      direct lattice vectors                 reciprocal lattice vectors
    20.465613000  0.000000000  0.000000000     0.048862450  0.000000000  0.000000000
     0.000000000 20.465613000  0.000000000     0.000000000  0.048862450  0.000000000
     0.000000000  0.000000000 20.465613000     0.000000000  0.000000000  0.048862450

  length of vectors
    20.465613000 20.465613000 20.465613000     0.048862450  0.048862450  0.048862450


 
 k-points in units of 2pi/SCALE and weight: Gamma-point only                        
   0.00000000  0.00000000  0.00000000       1.000
 
 k-points in reciprocal lattice and weights: Gamma-point only                        
   0.00000000  0.00000000  0.00000000       1.000
 
 position of ions in fractional coordinates (direct lattice) 
   0.51322545  0.46328736  0.53986867
   0.52651267  0.44406940  0.65603731
   0.41929657  0.43551928  0.60078267
   0.58809877  0.53081684  0.59610033
   0.47185506  0.54374353  0.62690833
   0.51088977  0.59214072  0.52464850
   0.47046243  0.52659950  0.43230707
   0.42004822  0.42677443  0.47379888
   0.59063939  0.52052290  0.46783247
   0.40541062  0.53244862  0.53338016
   0.53649781  0.42126682  0.43035410
   0.54460563  0.61390099  0.40917690
   0.55501981  0.50624070  0.35282897
   0.44743780  0.44266892  0.35597563
 
 position of ions in cartesian coordinates  (Angst):
  10.50347345  9.48145975 11.04874325
  10.77540455  9.08815252 13.42620569
   8.58116141  8.91316904 12.29538563
  12.03580189 10.86349201 12.19955863
   9.65680295 11.12804466 12.83006324
  10.45567242 12.11852272 10.73725317
   9.62830209 10.77718161  8.84742911
   8.59654427  8.73420029  9.69658454
  12.08779708 10.65282018  9.57447827
   8.29697696 10.89688737 10.91595187
  10.97975648  8.62148373  8.80746044
  11.14568806 12.56386000  8.37405618
  11.35882073 10.36052622  7.22086120
   9.15708886  9.05949091  7.28525957
 


--------------------------------------------------------------------------------------------------------


 use parallel FFT for wavefunctions z direction half grid
 k-point  1 :   0.0000 0.0000 0.0000  plane waves:   49493

 maximum and minimum number of plane-waves per node :      8252     8244

 maximum number of plane-waves:     49493
 maximum index in each direction: 
   IXMAX=   28   IYMAX=   28   IZMAX=   28
   IXMIN=  -28   IYMIN=  -28   IZMIN=    0

 WARNING: aliasing errors must be expected set NGX to 114 to avoid them
 WARNING: aliasing errors must be expected set NGY to 114 to avoid them
 WARNING: aliasing errors must be expected set NGZ to 114 to avoid them
 aliasing errors are usually negligible using standard VASP settings
 and one can safely disregard these warnings

 parallel 3D FFT for wavefunctions:
    minimum data exchange during FFTs selected (reduces bandwidth)
 parallel 3D FFT for charge:
    minimum data exchange during FFTs selected (reduces bandwidth)


 total amount of memory used by VASP on root node    79547. kBytes
========================================================================

   base      :      30000. kBytes
   nonl-proj :       3036. kBytes
   fftplans  :      11255. kBytes
   grid      :      28586. kBytes
   one-center:         46. kBytes
   wavefun   :       6624. kBytes
 
     INWAV:  cpu time    0.0000: real time    0.0000
 Broyden mixing: mesh for mixing (old mesh)
   NGX = 57   NGY = 57   NGZ = 57
  (NGX  =180   NGY  =180   NGZ  =180)
  gives a total of 185193 points

 initial charge density was supplied:
 charge density of overlapping atoms calculated
 number of electron     154.0000000 magnetization      14.0000000
 keeping initial charge density in first step


--------------------------------------------------------------------------------------------------------


 Maximum index for augmentation-charges          217 (set IRDMAX)


--------------------------------------------------------------------------------------------------------


 First call to EWALD:  gamma=   0.087
 Maximum number of real-space cells 3x 3x 3
 Maximum number of reciprocal cells 3x 3x 3

 FEWALD executed in parallel
    FEWALD:  cpu time    0.0028: real time    0.0028


----------------------------------------- Iteration    1(   1)  ---------------------------------------


    POTLOK:  cpu time    0.4516: real time    0.4522
    SETDIJ:  cpu time    0.0097: real time    0.0097
     EDDAV:  cpu time    1.6806: real time    1.6829
       DOS:  cpu time    0.0001: real time    0.0001
    --------------------------------------------
      LOOP:  cpu time    2.1450: real time    2.1496

 eigenvalue-minimisations  :   400
 total energy-change (2. order) : 0.1018866E+04  (-0.2735805E+04)
 number of electron     154.0000000 magnetization      14.0000000
 augmentation part      154.0000000 magnetization      14.0000000

 Free energy of the ion-electron system (eV)
  ---------------------------------------------------
  alpha Z        PSCENC =        16.72222345
  Ewald energy   TEWEN  =     25427.48178786
  -Hartree energ DENC   =    -43168.81253024
  -exchange      EXHF   =         0.00000000
  -V(xc)+E(xc)   XCENC  =       630.27536523
  PAW double counting   =     17193.36494469   -18674.89304135
  entropy T*S    EENTRO =         0.00000000
  eigenvalues    EBANDS =       121.62879917
  atomic energy  EATOM  =     19473.09818521
  Solvation  Ediel_sol  =         0.00000000
  ---------------------------------------------------
  free energy    TOTEN  =      1018.86573401 eV

  energy without entropy =     1018.86573401  energy(sigma->0) =     1018.86573401


--------------------------------------------------------------------------------------------------------




----------------------------------------- Iteration    1(   2)  ---------------------------------------


     EDDAV:  cpu time    1.7015: real time    1.7030
       DOS:  cpu time    0.0001: real time    0.0001
    --------------------------------------------
      LOOP:  cpu time    1.7038: real time    1.7081

 eigenvalue-minimisations  :   408
 total energy-change (2. order) :-0.8454518E+03  (-0.7677492E+03)
 number of electron     154.0000000 magnetization      14.0000000
 augmentation part      154.0000000 magnetization      14.0000000

 Free energy of the ion-electron system (eV)
  ---------------------------------------------------
  alpha Z        PSCENC =        16.72222345
  Ewald energy   TEWEN  =     25427.48178786
  -Hartree energ DENC   =    -43168.81253024
  -exchange      EXHF   =         0.00000000
  -V(xc)+E(xc)   XCENC  =       630.27536523
  PAW double counting   =     17193.36494469   -18674.89304135
  entropy T*S    EENTRO =         0.00000000
  eigenvalues    EBANDS =      -723.82298569
  atomic energy  EATOM  =     19473.09818521
  Solvation  Ediel_sol  =         0.00000000
  ---------------------------------------------------
  free energy    TOTEN  =       173.41394915 eV

  energy without entropy =      173.41394915  energy(sigma->0) =      173.41394915


--------------------------------------------------------------------------------------------------------




----------------------------------------- Iteration    1(   3)  ---------------------------------------


     EDDAV:  cpu time    1.9593: real time    1.9619
       DOS:  cpu time    0.0001: real time    0.0001
    --------------------------------------------
      LOOP:  cpu time    1.9614: real time    1.9669

 eigenvalue-minimisations  :   488
 total energy-change (2. order) :-0.1879001E+03  (-0.1775531E+03)
 number of electron     154.0000000 magnetization      14.0000000
 augmentation part      154.0000000 magnetization      14.0000000

 Free energy of the ion-electron system (eV)
  ---------------------------------------------------
  alpha Z        PSCENC =        16.72222345
  Ewald energy   TEWEN  =     25427.48178786
  -Hartree energ DENC   =    -43168.81253024
  -exchange      EXHF   =         0.00000000
  -V(xc)+E(xc)   XCENC  =       630.27536523
  PAW double counting   =     17193.36494469   -18674.89304135
  entropy T*S    EENTRO =         0.00000000
  eigenvalues    EBANDS =      -911.72303626
  atomic energy  EATOM  =     19473.09818521
  Solvation  Ediel_sol  =         0.00000000
  ---------------------------------------------------
  free energy    TOTEN  =       -14.48610142 eV

  energy without entropy =      -14.48610142  energy(sigma->0) =      -14.48610142


--------------------------------------------------------------------------------------------------------




----------------------------------------- Iteration    1(   4)  ---------------------------------------


     EDDAV:  cpu time    1.8755: real time    1.8769
       DOS:  cpu time    0.0001: real time    0.0001
    --------------------------------------------
      LOOP:  cpu time    1.8777: real time    1.8817

 eigenvalue-minimisations  :   464
 total energy-change (2. order) :-0.2547089E+02  (-0.2381480E+02)
 number of electron     154.0000000 magnetization      14.0000000
 augmentation part      154.0000000 magnetization      14.0000000

 Free energy of the ion-electron system (eV)
  ---------------------------------------------------
  alpha Z        PSCENC =        16.72222345
  Ewald energy   TEWEN  =     25427.48178786
  -Hartree energ DENC   =    -43168.81253024
  -exchange      EXHF   =         0.00000000
  -V(xc)+E(xc)   XCENC  =       630.27536523
  PAW double counting   =     17193.36494469   -18674.89304135
  entropy T*S    EENTRO =         0.00000000
  eigenvalues    EBANDS =      -937.19392404
  atomic energy  EATOM  =     19473.09818521
  Solvation  Ediel_sol  =         0.00000000
  ---------------------------------------------------
  free energy    TOTEN  =       -39.95698920 eV

  energy without entropy =      -39.95698920  energy(sigma->0) =      -39.95698920


--------------------------------------------------------------------------------------------------------




----------------------------------------- Iteration    1(   5)  ---------------------------------------


     EDDAV:  cpu time    1.9717: real time    1.9737
       DOS:  cpu time    0.0001: real time    0.0001
    CHARGE:  cpu time    0.1267: real time    0.1267
    MIXING:  cpu time    0.0099: real time    0.0100
    --------------------------------------------
      LOOP:  cpu time    2.1106: real time    2.1155

 eigenvalue-minimisations  :   496
 total energy-change (2. order) :-0.8456399E+00  (-0.8410820E+00)
 number of electron     154.0000135 magnetization      12.3461640
 augmentation part       94.1053018 magnetization      11.9826346

 Broyden mixing:
  rms(total) = 0.29470E+01    rms(broyden)= 0.29463E+01
  rms(prec ) = 0.30515E+01
  weight for this iteration     100.00

 Free energy of the ion-electron system (eV)
  ---------------------------------------------------
  alpha Z        PSCENC =        16.72222345
  Ewald energy   TEWEN  =     25427.48178786
  -Hartree energ DENC   =    -43168.81253024
  -exchange      EXHF   =         0.00000000
  -V(xc)+E(xc)   XCENC  =       630.27536523
  PAW double counting   =     17193.36494469   -18674.89304135
  entropy T*S    EENTRO =         0.00000000
  eigenvalues    EBANDS =      -938.03956390
  atomic energy  EATOM  =     19473.09818521
  Solvation  Ediel_sol  =         0.00000000
  ---------------------------------------------------
  free energy    TOTEN  =       -40.80262905 eV

  energy without entropy =      -40.80262905  energy(sigma->0) =      -40.80262905


--------------------------------------------------------------------------------------------------------




----------------------------------------- Iteration    1(   6)  ---------------------------------------


    POTLOK:  cpu time    0.4461: real time    0.4467
    SETDIJ:  cpu time    0.0095: real time    0.0095
     EDDAV:  cpu time    1.7789: real time    1.7805
       DOS:  cpu time    0.0001: real time    0.0001
    CHARGE:  cpu time    0.1203: real time    0.1204
    MIXING:  cpu time    0.0106: real time    0.0107
    --------------------------------------------
      LOOP:  cpu time    2.3684: real time    2.3736

 eigenvalue-minimisations  :   428
 total energy-change (2. order) : 0.2168175E+02  (-0.1369810E+02)
 number of electron     154.0000138 magnetization      11.2844931
 augmentation part      102.1709414 magnetization       8.0247623

 Broyden mixing:
  rms(total) = 0.12842E+01    rms(broyden)= 0.12836E+01
  rms(prec ) = 0.13884E+01
  weight for this iteration     100.00

 eigenvalues of (default mixing * dielectric matrix)
  average eigenvalue GAMMA=   0.8399
  0.8399

 Free energy of the ion-electron system (eV)
  ---------------------------------------------------
  alpha Z        PSCENC =        16.72222345
  Ewald energy   TEWEN  =     25427.48178786
  -Hartree energ DENC   =    -42935.74140272
  -exchange      EXHF   =         0.00000000
  -V(xc)+E(xc)   XCENC  =       630.43916930
  PAW double counting   =     17399.48001918   -18831.88939240
  entropy T*S    EENTRO =         0.00000000
  eigenvalues    EBANDS =     -1198.71147093
  atomic energy  EATOM  =     19473.09818521
  Solvation  Ediel_sol  =         0.00000000
  ---------------------------------------------------
  free energy    TOTEN  =       -19.12088105 eV

  energy without entropy =      -19.12088105  energy(sigma->0) =      -19.12088105


--------------------------------------------------------------------------------------------------------




----------------------------------------- Iteration    1(   7)  ---------------------------------------


    POTLOK:  cpu time    0.4465: real time    0.4467
    SETDIJ:  cpu time    0.0092: real time    0.0092
     EDDAV:  cpu time    1.8861: real time    1.8877
       DOS:  cpu time    0.0001: real time    0.0001
    CHARGE:  cpu time    0.1230: real time    0.1230
    MIXING:  cpu time    0.0114: real time    0.0115
    --------------------------------------------
      LOOP:  cpu time    2.4794: real time    2.4839

 eigenvalue-minimisations  :   468
 total energy-change (2. order) : 0.8214387E+01  (-0.3558168E+01)
 number of electron     154.0000141 magnetization      10.3315609
 augmentation part       99.0168153 magnetization       5.2375270

 Broyden mixing:
  rms(total) = 0.52436E+00    rms(broyden)= 0.52350E+00
  rms(prec ) = 0.55761E+00
  weight for this iteration     100.00

 eigenvalues of (default mixing * dielectric matrix)
  average eigenvalue GAMMA=   0.7989
  0.9566  0.6411

 Free energy of the ion-electron system (eV)
  ---------------------------------------------------
  alpha Z        PSCENC =        16.72222345
  Ewald energy   TEWEN  =     25427.48178786
  -Hartree energ DENC   =    -43111.55887166
  -exchange      EXHF   =         0.00000000
  -V(xc)+E(xc)   XCENC  =       640.98895880
  PAW double counting   =     17752.34975440   -19242.46274953
  entropy T*S    EENTRO =         0.00000000
  eigenvalues    EBANDS =      -967.52578261
  atomic energy  EATOM  =     19473.09818521
  Solvation  Ediel_sol  =         0.00000000
  ---------------------------------------------------
  free energy    TOTEN  =       -10.90649409 eV

  energy without entropy =      -10.90649409  energy(sigma->0) =      -10.90649409


--------------------------------------------------------------------------------------------------------




----------------------------------------- Iteration    1(   8)  ---------------------------------------


    POTLOK:  cpu time    0.4433: real time    0.4439
    SETDIJ:  cpu time    0.0092: real time    0.0092
     EDDAV:  cpu time    1.9107: real time    1.9126
       DOS:  cpu time    0.0001: real time    0.0001
    CHARGE:  cpu time    0.1229: real time    0.1230
    MIXING:  cpu time    0.0111: real time    0.0111
    --------------------------------------------
      LOOP:  cpu time    2.5007: real time    2.5060

 eigenvalue-minimisations  :   476
 total energy-change (2. order) :-0.2919489E+01  (-0.7145715E+00)
 number of electron     154.0000134 magnetization       9.6430066
 augmentation part       98.6214488 magnetization       4.5443248

 Broyden mixing:
  rms(total) = 0.47843E+00    rms(broyden)= 0.47815E+00
  rms(prec ) = 0.51031E+00
  weight for this iteration     100.00

 eigenvalues of (default mixing * dielectric matrix)
  average eigenvalue GAMMA=   0.7602
  1.0923  0.6454  0.5430

 Free energy of the ion-electron system (eV)
  ---------------------------------------------------
  alpha Z        PSCENC =        16.72222345
  Ewald energy   TEWEN  =     25427.48178786
  -Hartree energ DENC   =    -43137.54821937
  -exchange      EXHF   =         0.00000000
  -V(xc)+E(xc)   XCENC  =       638.47750057
  PAW double counting   =     17951.00928544   -19450.78202315
  entropy T*S    EENTRO =         0.00000000
  eigenvalues    EBANDS =      -932.28472280
  atomic energy  EATOM  =     19473.09818521
  Solvation  Ediel_sol  =         0.00000000
  ---------------------------------------------------
  free energy    TOTEN  =       -13.82598280 eV

  energy without entropy =      -13.82598280  energy(sigma->0) =      -13.82598280


--------------------------------------------------------------------------------------------------------




----------------------------------------- Iteration    1(   9)  ---------------------------------------


    POTLOK:  cpu time    0.4401: real time    0.4441
    SETDIJ:  cpu time    0.0091: real time    0.0091
     EDDAV:  cpu time    2.2064: real time    2.2084
       DOS:  cpu time    0.0001: real time    0.0001
    CHARGE:  cpu time    0.1237: real time    0.1238
    MIXING:  cpu time    0.0121: real time    0.0121
    --------------------------------------------
      LOOP:  cpu time    2.7946: real time    2.8035

 eigenvalue-minimisations  :   568
 total energy-change (2. order) :-0.1361028E+01  (-0.1819273E+00)
 number of electron     154.0000135 magnetization       8.3785779
 augmentation part       98.5459594 magnetization       3.3533977

 Broyden mixing:
  rms(total) = 0.27589E+00    rms(broyden)= 0.27578E+00
  rms(prec ) = 0.28713E+00
  weight for this iteration     100.00

 eigenvalues of (default mixing * dielectric matrix)
  average eigenvalue GAMMA=   0.9010
  1.1636  1.1636  0.8265  0.4502

 Free energy of the ion-electron system (eV)
  ---------------------------------------------------
  alpha Z        PSCENC =        16.72222345
  Ewald energy   TEWEN  =     25427.48178786
  -Hartree energ DENC   =    -43144.57861236
  -exchange      EXHF   =         0.00000000
  -V(xc)+E(xc)   XCENC  =       636.71610343
  PAW double counting   =     18042.99173191   -19544.90356963
  entropy T*S    EENTRO =         0.00000000
  eigenvalues    EBANDS =      -922.71486088
  atomic energy  EATOM  =     19473.09818521
  Solvation  Ediel_sol  =         0.00000000
  ---------------------------------------------------
  free energy    TOTEN  =       -15.18701102 eV

  energy without entropy =      -15.18701102  energy(sigma->0) =      -15.18701102


--------------------------------------------------------------------------------------------------------




----------------------------------------- Iteration    1(  10)  ---------------------------------------


    POTLOK:  cpu time    0.4463: real time    0.4471
    SETDIJ:  cpu time    0.0098: real time    0.0098
     EDDAV:  cpu time    1.9920: real time    1.9936
       DOS:  cpu time    0.0001: real time    0.0001
    CHARGE:  cpu time    0.1226: real time    0.1226
    MIXING:  cpu time    0.0122: real time    0.0123
    --------------------------------------------
      LOOP:  cpu time    2.5863: real time    2.5914

 eigenvalue-minimisations  :   504
 total energy-change (2. order) :-0.4017460E+01  (-0.2154891E+00)
 number of electron     154.0000140 magnetization       8.0430277
 augmentation part       99.0728792 magnetization       4.9668427

 Broyden mixing:
  rms(total) = 0.29563E+00    rms(broyden)= 0.29442E+00
  rms(prec ) = 0.30671E+00
  weight for this iteration     100.00

 eigenvalues of (default mixing * dielectric matrix)
  average eigenvalue GAMMA=   0.8043
  1.4705  0.8524  0.8524  0.4763  0.3696

 Free energy of the ion-electron system (eV)
  ---------------------------------------------------
  alpha Z        PSCENC =        16.72222345
  Ewald energy   TEWEN  =     25427.48178786
  -Hartree energ DENC   =    -43136.51635565
  -exchange      EXHF   =         0.00000000
  -V(xc)+E(xc)   XCENC  =       632.69713702
  PAW double counting   =     18115.79438243   -19615.20212370
  entropy T*S    EENTRO =         0.00000000
  eigenvalues    EBANDS =      -933.27970759
  atomic energy  EATOM  =     19473.09818521
  Solvation  Ediel_sol  =         0.00000000
  ---------------------------------------------------
  free energy    TOTEN  =       -19.20447097 eV

  energy without entropy =      -19.20447097  energy(sigma->0) =      -19.20447097


--------------------------------------------------------------------------------------------------------




----------------------------------------- Iteration    1(  11)  ---------------------------------------


    POTLOK:  cpu time    0.4429: real time    0.4436
    SETDIJ:  cpu time    0.0091: real time    0.0091
     EDDAV:  cpu time    1.9932: real time    1.9946
       DOS:  cpu time    0.0001: real time    0.0001
    CHARGE:  cpu time    0.1225: real time    0.1225
    MIXING:  cpu time    0.0129: real time    0.0129
    --------------------------------------------
      LOOP:  cpu time    2.5839: real time    2.5887

 eigenvalue-minimisations  :   504
 total energy-change (2. order) :-0.5815692E-01  (-0.2568871E-01)
 number of electron     154.0000137 magnetization       7.1952838
 augmentation part       99.0323290 magnetization       4.1575799

 Broyden mixing:
  rms(total) = 0.24317E+00    rms(broyden)= 0.24311E+00
  rms(prec ) = 0.25238E+00
  weight for this iteration     100.00

 eigenvalues of (default mixing * dielectric matrix)
  average eigenvalue GAMMA=   0.9181
  1.7336  1.0057  0.8592  0.8592  0.5815  0.4695

 Free energy of the ion-electron system (eV)
  ---------------------------------------------------
  alpha Z        PSCENC =        16.72222345
  Ewald energy   TEWEN  =     25427.48178786
  -Hartree energ DENC   =    -43144.39174096
  -exchange      EXHF   =         0.00000000
  -V(xc)+E(xc)   XCENC  =       632.90041603
  PAW double counting   =     18139.07246084   -19640.07514248
  entropy T*S    EENTRO =         0.00000000
  eigenvalues    EBANDS =      -924.07081784
  atomic energy  EATOM  =     19473.09818521
  Solvation  Ediel_sol  =         0.00000000
  ---------------------------------------------------
  free energy    TOTEN  =       -19.26262789 eV

  energy without entropy =      -19.26262789  energy(sigma->0) =      -19.26262789


--------------------------------------------------------------------------------------------------------




----------------------------------------- Iteration    1(  12)  ---------------------------------------


    POTLOK:  cpu time    0.4418: real time    0.4429
    SETDIJ:  cpu time    0.0091: real time    0.0091
     EDDAV:  cpu time    2.1463: real time    2.1487
       DOS:  cpu time    0.0001: real time    0.0001
    CHARGE:  cpu time    0.1244: real time    0.1248
    MIXING:  cpu time    0.0136: real time    0.0136
    --------------------------------------------
      LOOP:  cpu time    2.7386: real time    2.7450

 eigenvalue-minimisations  :   556
 total energy-change (2. order) :-0.1939479E+01  (-0.6618196E-01)
 number of electron     154.0000138 magnetization       5.2258401
 augmentation part       98.8328502 magnetization       2.3244292

 Broyden mixing:
  rms(total) = 0.18607E+00    rms(broyden)= 0.18606E+00
  rms(prec ) = 0.19225E+00
  weight for this iteration     100.00

 eigenvalues of (default mixing * dielectric matrix)
  average eigenvalue GAMMA=   1.0791
  2.6478  1.7359  0.7762  0.7762  0.7005  0.4586  0.4586

 Free energy of the ion-electron system (eV)
  ---------------------------------------------------
  alpha Z        PSCENC =        16.72222345
  Ewald energy   TEWEN  =     25427.48178786
  -Hartree energ DENC   =    -43159.23282513
  -exchange      EXHF   =         0.00000000
  -V(xc)+E(xc)   XCENC  =       631.79807747
  PAW double counting   =     18163.07885863   -19666.51579520
  entropy T*S    EENTRO =         0.00000000
  eigenvalues    EBANDS =      -907.63261961
  atomic energy  EATOM  =     19473.09818521
  Solvation  Ediel_sol  =         0.00000000
  ---------------------------------------------------
  free energy    TOTEN  =       -21.20210733 eV

  energy without entropy =      -21.20210733  energy(sigma->0) =      -21.20210733


--------------------------------------------------------------------------------------------------------




----------------------------------------- Iteration    1(  13)  ---------------------------------------


    POTLOK:  cpu time    0.4428: real time    0.4431
    SETDIJ:  cpu time    0.0091: real time    0.0091
     EDDAV:  cpu time    2.0917: real time    2.0937
       DOS:  cpu time    0.0001: real time    0.0001
    CHARGE:  cpu time    0.1226: real time    0.1226
    MIXING:  cpu time    0.0142: real time    0.0142
    --------------------------------------------
      LOOP:  cpu time    2.6837: real time    2.6891

 eigenvalue-minimisations  :   536
 total energy-change (2. order) :-0.5570113E+01  (-0.2980191E+00)
 number of electron     154.0000137 magnetization       4.7703990
 augmentation part       98.8071256 magnetization       2.3048101

 Broyden mixing:
  rms(total) = 0.11621E+00    rms(broyden)= 0.11613E+00
  rms(prec ) = 0.11985E+00
  weight for this iteration     100.00

 eigenvalues of (default mixing * dielectric matrix)
  average eigenvalue GAMMA=   1.1267
  2.4178  2.4178  0.9622  0.9622  0.6771  0.6771  0.4300  0.4693

 Free energy of the ion-electron system (eV)
  ---------------------------------------------------
  alpha Z        PSCENC =        16.72222345
  Ewald energy   TEWEN  =     25427.48178786
  -Hartree energ DENC   =    -43166.22542360
  -exchange      EXHF   =         0.00000000
  -V(xc)+E(xc)   XCENC  =       627.39605602
  PAW double counting   =     18155.05485981   -19657.06993358
  entropy T*S    EENTRO =         0.00000000
  eigenvalues    EBANDS =      -903.22997529
  atomic energy  EATOM  =     19473.09818521
  Solvation  Ediel_sol  =         0.00000000
  ---------------------------------------------------
  free energy    TOTEN  =       -26.77222013 eV

  energy without entropy =      -26.77222013  energy(sigma->0) =      -26.77222013


--------------------------------------------------------------------------------------------------------




----------------------------------------- Iteration    1(  14)  ---------------------------------------


    POTLOK:  cpu time    0.4429: real time    0.4436
    SETDIJ:  cpu time    0.0091: real time    0.0091
     EDDAV:  cpu time    1.9696: real time    1.9716
       DOS:  cpu time    0.0001: real time    0.0001
    CHARGE:  cpu time    0.1231: real time    0.1232
    MIXING:  cpu time    0.0158: real time    0.0158
    --------------------------------------------
      LOOP:  cpu time    2.5638: real time    2.5693

 eigenvalue-minimisations  :   488
 total energy-change (2. order) :-0.3447335E+01  (-0.1289961E+00)
 number of electron     154.0000137 magnetization       4.4010571
 augmentation part       98.9198688 magnetization       2.1673935

 Broyden mixing:
  rms(total) = 0.11140E+00    rms(broyden)= 0.11136E+00
  rms(prec ) = 0.11590E+00
  weight for this iteration     100.00

 eigenvalues of (default mixing * dielectric matrix)
  average eigenvalue GAMMA=   1.1237
  2.6847  2.6847  0.9721  0.9721  0.6919  0.6919  0.5646  0.4438  0.4072

 Free energy of the ion-electron system (eV)
  ---------------------------------------------------
  alpha Z        PSCENC =        16.72222345
  Ewald energy   TEWEN  =     25427.48178786
  -Hartree energ DENC   =    -43153.95544801
  -exchange      EXHF   =         0.00000000
  -V(xc)+E(xc)   XCENC  =       624.36709626
  PAW double counting   =     18113.75805486   -19612.52379753
  entropy T*S    EENTRO =         0.00000000
  eigenvalues    EBANDS =      -919.16765729
  atomic energy  EATOM  =     19473.09818521
  Solvation  Ediel_sol  =         0.00000000
  ---------------------------------------------------
  free energy    TOTEN  =       -30.21955519 eV

  energy without entropy =      -30.21955519  energy(sigma->0) =      -30.21955519


--------------------------------------------------------------------------------------------------------




----------------------------------------- Iteration    1(  15)  ---------------------------------------


    POTLOK:  cpu time    0.4456: real time    0.4459
    SETDIJ:  cpu time    0.0099: real time    0.0099
     EDDAV:  cpu time    1.9907: real time    1.9932
       DOS:  cpu time    0.0001: real time    0.0001
    CHARGE:  cpu time    0.1195: real time    0.1197
    MIXING:  cpu time    0.0157: real time    0.0157
    --------------------------------------------
      LOOP:  cpu time    2.5848: real time    2.5905

 eigenvalue-minimisations  :   504
 total energy-change (2. order) :-0.1468149E+01  (-0.3357459E-01)
 number of electron     154.0000132 magnetization       4.3613905
 augmentation part       98.9361870 magnetization       3.9154441

 Broyden mixing:
  rms(total) = 0.22273E+00    rms(broyden)= 0.22168E+00
  rms(prec ) = 0.23385E+00
  weight for this iteration     100.00

 eigenvalues of (default mixing * dielectric matrix)
  average eigenvalue GAMMA=   1.0116
  2.6825  2.6825  0.9733  0.9733  0.6902  0.6902  0.5650  0.4430  0.4072  0.0088

 Free energy of the ion-electron system (eV)
  ---------------------------------------------------
  alpha Z        PSCENC =        16.72222345
  Ewald energy   TEWEN  =     25427.48178786
  -Hartree energ DENC   =    -43151.59089312
  -exchange      EXHF   =         0.00000000
  -V(xc)+E(xc)   XCENC  =       623.24441337
  PAW double counting   =     18093.86403525   -19592.77131821
  entropy T*S    EENTRO =         0.00000000
  eigenvalues    EBANDS =      -921.73613826
  atomic energy  EATOM  =     19473.09818521
  Solvation  Ediel_sol  =         0.00000000
  ---------------------------------------------------
  free energy    TOTEN  =       -31.68770446 eV

  energy without entropy =      -31.68770446  energy(sigma->0) =      -31.68770446


--------------------------------------------------------------------------------------------------------




----------------------------------------- Iteration    1(  16)  ---------------------------------------


    POTLOK:  cpu time    0.4419: real time    0.4424
    SETDIJ:  cpu time    0.0091: real time    0.0091
     EDDAV:  cpu time    1.9535: real time    1.9558
       DOS:  cpu time    0.0001: real time    0.0001
    CHARGE:  cpu time    0.1193: real time    0.1196
    MIXING:  cpu time    0.0165: real time    0.0165
    --------------------------------------------
      LOOP:  cpu time    2.5437: real time    2.5496

 eigenvalue-minimisations  :   492
 total energy-change (2. order) : 0.3150015E+00  (-0.3583366E-02)
 number of electron     154.0000132 magnetization       4.3509982
 augmentation part       98.9538005 magnetization       3.9272984

 Broyden mixing:
  rms(total) = 0.21881E+00    rms(broyden)= 0.21876E+00
  rms(prec ) = 0.23093E+00
  weight for this iteration     100.00

 eigenvalues of (default mixing * dielectric matrix)
  average eigenvalue GAMMA=   0.9416
  2.6625  2.6625  0.9706  0.9706  0.6896  0.6896  0.5799  0.4436  0.4021  0.1704
  0.1162

 Free energy of the ion-electron system (eV)
  ---------------------------------------------------
  alpha Z        PSCENC =        16.72222345
  Ewald energy   TEWEN  =     25427.48178786
  -Hartree energ DENC   =    -43151.83330173
  -exchange      EXHF   =         0.00000000
  -V(xc)+E(xc)   XCENC  =       623.55608164
  PAW double counting   =     18094.12046965   -19593.09640970
  entropy T*S    EENTRO =         0.00000000
  eigenvalues    EBANDS =      -921.42173935
  atomic energy  EATOM  =     19473.09818521
  Solvation  Ediel_sol  =         0.00000000
  ---------------------------------------------------
  free energy    TOTEN  =       -31.37270298 eV

  energy without entropy =      -31.37270298  energy(sigma->0) =      -31.37270298


--------------------------------------------------------------------------------------------------------




----------------------------------------- Iteration    1(  17)  ---------------------------------------


    POTLOK:  cpu time    0.4430: real time    0.4432
    SETDIJ:  cpu time    0.0091: real time    0.0091
     EDDAV:  cpu time    1.9689: real time    1.9707
       DOS:  cpu time    0.0001: real time    0.0001
    CHARGE:  cpu time    0.1222: real time    0.1222
    MIXING:  cpu time    0.0173: real time    0.0173
    --------------------------------------------
      LOOP:  cpu time    2.5640: real time    2.5687

 eigenvalue-minimisations  :   496
 total energy-change (2. order) : 0.7477640E-01  (-0.2235769E-03)
 number of electron     154.0000132 magnetization       4.3828236
 augmentation part       98.9488607 magnetization       3.9646599

 Broyden mixing:
  rms(total) = 0.21754E+00    rms(broyden)= 0.21754E+00
  rms(prec ) = 0.22963E+00
  weight for this iteration     100.00

 eigenvalues of (default mixing * dielectric matrix)
  average eigenvalue GAMMA=   0.9097
  2.6449  2.6449  0.9692  0.9692  0.4667  0.7054  0.7054  0.5789  0.4476  0.4090
  0.1874  0.1874

 Free energy of the ion-electron system (eV)
  ---------------------------------------------------
  alpha Z        PSCENC =        16.72222345
  Ewald energy   TEWEN  =     25427.48178786
  -Hartree energ DENC   =    -43151.98739218
  -exchange      EXHF   =         0.00000000
  -V(xc)+E(xc)   XCENC  =       623.63810825
  PAW double counting   =     18093.92193856   -19592.97057519
  entropy T*S    EENTRO =         0.00000000
  eigenvalues    EBANDS =      -921.20220252
  atomic energy  EATOM  =     19473.09818521
  Solvation  Ediel_sol  =         0.00000000
  ---------------------------------------------------
  free energy    TOTEN  =       -31.29792658 eV

  energy without entropy =      -31.29792658  energy(sigma->0) =      -31.29792658


--------------------------------------------------------------------------------------------------------




----------------------------------------- Iteration    1(  18)  ---------------------------------------


    POTLOK:  cpu time    0.4419: real time    0.4426
    SETDIJ:  cpu time    0.0091: real time    0.0091
     EDDAV:  cpu time    2.0774: real time    2.0792
       DOS:  cpu time    0.0001: real time    0.0001
    CHARGE:  cpu time    0.1232: real time    0.1232
    MIXING:  cpu time    0.0183: real time    0.0183
    --------------------------------------------
      LOOP:  cpu time    2.6733: real time    2.6786

 eigenvalue-minimisations  :   532
 total energy-change (2. order) : 0.5751300E-01  (-0.8700027E-04)
 number of electron     154.0000133 magnetization       3.6734720
 augmentation part       98.9568596 magnetization       3.2489832

 Broyden mixing:
  rms(total) = 0.22041E+00    rms(broyden)= 0.22041E+00
  rms(prec ) = 0.23283E+00
  weight for this iteration     100.00

 eigenvalues of (default mixing * dielectric matrix)
  average eigenvalue GAMMA=   0.9706
  2.7237  2.7237  0.8666  0.8666  0.9835  0.9835  0.7249  0.7249  0.5812  0.4612
  0.4148  0.2816  0.2816

 Free energy of the ion-electron system (eV)
  ---------------------------------------------------
  alpha Z        PSCENC =        16.72222345
  Ewald energy   TEWEN  =     25427.48178786
  -Hartree energ DENC   =    -43151.83398392
  -exchange      EXHF   =         0.00000000
  -V(xc)+E(xc)   XCENC  =       623.67470881
  PAW double counting   =     18094.97253210   -19593.87510681
  entropy T*S    EENTRO =         0.00000000
  eigenvalues    EBANDS =      -921.48076027
  atomic energy  EATOM  =     19473.09818521
  Solvation  Ediel_sol  =         0.00000000
  ---------------------------------------------------
  free energy    TOTEN  =       -31.24041357 eV

  energy without entropy =      -31.24041357  energy(sigma->0) =      -31.24041357


--------------------------------------------------------------------------------------------------------




----------------------------------------- Iteration    1(  19)  ---------------------------------------


    POTLOK:  cpu time    0.4424: real time    0.4429
    SETDIJ:  cpu time    0.0091: real time    0.0091
     EDDAV:  cpu time    2.1130: real time    2.1146
       DOS:  cpu time    0.0001: real time    0.0001
    CHARGE:  cpu time    0.1226: real time    0.1227
    MIXING:  cpu time    0.0193: real time    0.0193
    --------------------------------------------
      LOOP:  cpu time    2.7099: real time    2.7149

 eigenvalue-minimisations  :   544
 total energy-change (2. order) :-0.9276469E+00  (-0.2391387E-01)
 number of electron     154.0000133 magnetization       1.9812980
 augmentation part       98.7958603 magnetization       1.6759910

 Broyden mixing:
  rms(total) = 0.17961E+00    rms(broyden)= 0.17961E+00
  rms(prec ) = 0.18964E+00
  weight for this iteration     100.00

 eigenvalues of (default mixing * dielectric matrix)
  average eigenvalue GAMMA=   1.1020
  4.8099  2.0584  1.0339  1.0339  1.0163  1.0163  0.9765  0.8111  0.6559  0.4833
  0.4833  0.4258  0.3117  0.3117

 Free energy of the ion-electron system (eV)
  ---------------------------------------------------
  alpha Z        PSCENC =        16.72222345
  Ewald energy   TEWEN  =     25427.48178786
  -Hartree energ DENC   =    -43153.93129513
  -exchange      EXHF   =         0.00000000
  -V(xc)+E(xc)   XCENC  =       623.13878393
  PAW double counting   =     18081.86755167   -19583.47013991
  entropy T*S    EENTRO =         0.00000000
  eigenvalues    EBANDS =      -917.07515758
  atomic energy  EATOM  =     19473.09818521
  Solvation  Ediel_sol  =         0.00000000
  ---------------------------------------------------
  free energy    TOTEN  =       -32.16806050 eV

  energy without entropy =      -32.16806050  energy(sigma->0) =      -32.16806050


--------------------------------------------------------------------------------------------------------




----------------------------------------- Iteration    1(  20)  ---------------------------------------


    POTLOK:  cpu time    0.4458: real time    0.4465
    SETDIJ:  cpu time    0.0091: real time    0.0091
     EDDAV:  cpu time    2.3225: real time    2.3265
       DOS:  cpu time    0.0001: real time    0.0001
    CHARGE:  cpu time    0.1215: real time    0.1217
    MIXING:  cpu time    0.0203: real time    0.0203
    --------------------------------------------
      LOOP:  cpu time    2.9228: real time    2.9304

 eigenvalue-minimisations  :   604
 total energy-change (2. order) :-0.1791365E+01  (-0.7430791E-01)
 number of electron     154.0000131 magnetization       1.4205176
 augmentation part       98.6521582 magnetization       1.3428438

 Broyden mixing:
  rms(total) = 0.16323E+00    rms(broyden)= 0.16321E+00
  rms(prec ) = 0.16981E+00
  weight for this iteration     100.00

 eigenvalues of (default mixing * dielectric matrix)
  average eigenvalue GAMMA=   1.1851
  6.0101  1.8921  1.8921  1.0376  1.0376  0.9177  0.9177  0.8523  0.6346  0.6346
  0.4555  0.4555  0.4196  0.3098  0.3098

 Free energy of the ion-electron system (eV)
  ---------------------------------------------------
  alpha Z        PSCENC =        16.72222345
  Ewald energy   TEWEN  =     25427.48178786
  -Hartree energ DENC   =    -43149.36353763
  -exchange      EXHF   =         0.00000000
  -V(xc)+E(xc)   XCENC  =       621.75158343
  PAW double counting   =     18049.50087414   -19554.03597189
  entropy T*S    EENTRO =         0.00000000
  eigenvalues    EBANDS =      -919.11457026
  atomic energy  EATOM  =     19473.09818521
  Solvation  Ediel_sol  =         0.00000000
  ---------------------------------------------------
  free energy    TOTEN  =       -33.95942569 eV

  energy without entropy =      -33.95942569  energy(sigma->0) =      -33.95942569


--------------------------------------------------------------------------------------------------------




----------------------------------------- Iteration    1(  21)  ---------------------------------------


    POTLOK:  cpu time    0.4431: real time    0.4434
    SETDIJ:  cpu time    0.0091: real time    0.0091
     EDDAV:  cpu time    1.8255: real time    1.8272
       DOS:  cpu time    0.0001: real time    0.0001
    CHARGE:  cpu time    0.1230: real time    0.1232
    MIXING:  cpu time    0.0215: real time    0.0215
    --------------------------------------------
      LOOP:  cpu time    2.4255: real time    2.4305

 eigenvalue-minimisations  :   448
 total energy-change (2. order) :-0.6520215E+00  (-0.1346985E-01)
 number of electron     154.0000132 magnetization       0.9669186
 augmentation part       98.6472683 magnetization       0.9370443

 Broyden mixing:
  rms(total) = 0.12482E+00    rms(broyden)= 0.12482E+00
  rms(prec ) = 0.13175E+00
  weight for this iteration     100.00

 eigenvalues of (default mixing * dielectric matrix)
  average eigenvalue GAMMA=   1.2339
  7.0660  1.9479  1.9479  1.0671  1.0671  0.9077  0.9077  0.9368  0.7271  0.6139
  0.6139  0.4512  0.4512  0.4172  0.3097  0.3097

 Free energy of the ion-electron system (eV)
  ---------------------------------------------------
  alpha Z        PSCENC =        16.72222345
  Ewald energy   TEWEN  =     25427.48178786
  -Hartree energ DENC   =    -43146.49396493
  -exchange      EXHF   =         0.00000000
  -V(xc)+E(xc)   XCENC  =       621.08530009
  PAW double counting   =     18055.12523415   -19559.40673773
  entropy T*S    EENTRO =         0.00000000
  eigenvalues    EBANDS =      -922.22347528
  atomic energy  EATOM  =     19473.09818521
  Solvation  Ediel_sol  =         0.00000000
  ---------------------------------------------------
  free energy    TOTEN  =       -34.61144718 eV

  energy without entropy =      -34.61144718  energy(sigma->0) =      -34.61144718


--------------------------------------------------------------------------------------------------------




----------------------------------------- Iteration    1(  22)  ---------------------------------------


    POTLOK:  cpu time    0.4426: real time    0.4432
    SETDIJ:  cpu time    0.0091: real time    0.0091
     EDDAV:  cpu time    2.0677: real time    2.0694
       DOS:  cpu time    0.0001: real time    0.0001
    CHARGE:  cpu time    0.1227: real time    0.1228
    MIXING:  cpu time    0.0243: real time    0.0243
    --------------------------------------------
      LOOP:  cpu time    2.6696: real time    2.6743

 eigenvalue-minimisations  :   520
 total energy-change (2. order) :-0.4605672E+00  (-0.4191078E-02)
 number of electron     154.0000132 magnetization       0.5071811
 augmentation part       98.7016855 magnetization       0.5024890

 Broyden mixing:
  rms(total) = 0.92954E-01    rms(broyden)= 0.92951E-01
  rms(prec ) = 0.98559E-01
  weight for this iteration     100.00

 eigenvalues of (default mixing * dielectric matrix)
  average eigenvalue GAMMA=   1.2892
  7.7779  2.1160  2.1160  1.1389  1.1389  1.3008  0.9231  0.9231  0.7134  0.7134
  0.6103  0.5168  0.4430  0.4430  0.4215  0.3100  0.3100

 Free energy of the ion-electron system (eV)
  ---------------------------------------------------
  alpha Z        PSCENC =        16.72222345
  Ewald energy   TEWEN  =     25427.48178786
  -Hartree energ DENC   =    -43143.10483078
  -exchange      EXHF   =         0.00000000
  -V(xc)+E(xc)   XCENC  =       620.53448163
  PAW double counting   =     18059.12598354   -19562.69225410
  entropy T*S    EENTRO =         0.00000000
  eigenvalues    EBANDS =      -926.23759118
  atomic energy  EATOM  =     19473.09818521
  Solvation  Ediel_sol  =         0.00000000
  ---------------------------------------------------
  free energy    TOTEN  =       -35.07201438 eV

  energy without entropy =      -35.07201438  energy(sigma->0) =      -35.07201438


--------------------------------------------------------------------------------------------------------




----------------------------------------- Iteration    1(  23)  ---------------------------------------


    POTLOK:  cpu time    0.4418: real time    0.4459
    SETDIJ:  cpu time    0.0098: real time    0.0098
     EDDAV:  cpu time    2.0191: real time    2.0207
       DOS:  cpu time    0.0001: real time    0.0001
    CHARGE:  cpu time    0.1232: real time    0.1233
    MIXING:  cpu time    0.0248: real time    0.0248
    --------------------------------------------
      LOOP:  cpu time    2.6219: real time    2.6303

 eigenvalue-minimisations  :   512
 total energy-change (2. order) :-0.5593678E+00  (-0.4474621E-02)
 number of electron     154.0000132 magnetization       0.2364653
 augmentation part       98.7734818 magnetization       0.2466075

 Broyden mixing:
  rms(total) = 0.56073E-01    rms(broyden)= 0.56067E-01
  rms(prec ) = 0.59618E-01
  weight for this iteration     100.00

 eigenvalues of (default mixing * dielectric matrix)
  average eigenvalue GAMMA=   1.3536
  8.6506  2.3853  2.3853  1.5047  1.1468  1.1468  0.9466  0.9466  0.8381  0.8381
  0.6030  0.6030  0.3099  0.3099  0.4561  0.4561  0.4273  0.4101

 Free energy of the ion-electron system (eV)
  ---------------------------------------------------
  alpha Z        PSCENC =        16.72222345
  Ewald energy   TEWEN  =     25427.48178786
  -Hartree energ DENC   =    -43137.94511836
  -exchange      EXHF   =         0.00000000
  -V(xc)+E(xc)   XCENC  =       619.87351775
  PAW double counting   =     18062.22457354   -19564.60099482
  entropy T*S    EENTRO =         0.00000000
  eigenvalues    EBANDS =      -932.48555682
  atomic energy  EATOM  =     19473.09818521
  Solvation  Ediel_sol  =         0.00000000
  ---------------------------------------------------
  free energy    TOTEN  =       -35.63138221 eV

  energy without entropy =      -35.63138221  energy(sigma->0) =      -35.63138221


--------------------------------------------------------------------------------------------------------




----------------------------------------- Iteration    1(  24)  ---------------------------------------


    POTLOK:  cpu time    0.4428: real time    0.4434
    SETDIJ:  cpu time    0.0092: real time    0.0092
     EDDAV:  cpu time    2.0213: real time    2.0230
       DOS:  cpu time    0.0002: real time    0.0002
    CHARGE:  cpu time    0.1231: real time    0.1233
    MIXING:  cpu time    0.0266: real time    0.0266
    --------------------------------------------
      LOOP:  cpu time    2.6264: real time    2.6318

 eigenvalue-minimisations  :   508
 total energy-change (2. order) :-0.3235634E+00  (-0.2460917E-02)
 number of electron     154.0000132 magnetization       0.0422532
 augmentation part       98.7999189 magnetization       0.0470879

 Broyden mixing:
  rms(total) = 0.29113E-01    rms(broyden)= 0.29107E-01
  rms(prec ) = 0.31751E-01
  weight for this iteration     100.00

 eigenvalues of (default mixing * dielectric matrix)
  average eigenvalue GAMMA=   1.3918
  9.4189  2.4011  2.4011  1.7146  1.1267  1.1267  1.1870  0.9370  0.9370  0.8477
  0.7005  0.7005  0.3099  0.3099  0.5789  0.4616  0.4616  0.4231  0.4009

 Free energy of the ion-electron system (eV)
  ---------------------------------------------------
  alpha Z        PSCENC =        16.72222345
  Ewald energy   TEWEN  =     25427.48178786
  -Hartree energ DENC   =    -43135.48511628
  -exchange      EXHF   =         0.00000000
  -V(xc)+E(xc)   XCENC  =       619.54743195
  PAW double counting   =     18068.75951480   -19570.47867629
  entropy T*S    EENTRO =         0.00000000
  eigenvalues    EBANDS =      -935.60029634
  atomic energy  EATOM  =     19473.09818521
  Solvation  Ediel_sol  =         0.00000000
  ---------------------------------------------------
  free energy    TOTEN  =       -35.95494565 eV

  energy without entropy =      -35.95494565  energy(sigma->0) =      -35.95494565


--------------------------------------------------------------------------------------------------------




----------------------------------------- Iteration    1(  25)  ---------------------------------------


    POTLOK:  cpu time    0.4426: real time    0.4430
    SETDIJ:  cpu time    0.0091: real time    0.0091
     EDDAV:  cpu time    2.2435: real time    2.2453
       DOS:  cpu time    0.0001: real time    0.0001
    CHARGE:  cpu time    0.1235: real time    0.1238
    MIXING:  cpu time    0.0286: real time    0.0286
    --------------------------------------------
      LOOP:  cpu time    2.8507: real time    2.8560

 eigenvalue-minimisations  :   584
 total energy-change (2. order) :-0.1118653E+00  (-0.9826851E-03)
 number of electron     154.0000132 magnetization       0.0218370
 augmentation part       98.8233273 magnetization       0.0308122

 Broyden mixing:
  rms(total) = 0.19517E-01    rms(broyden)= 0.19513E-01
  rms(prec ) = 0.21289E-01
  weight for this iteration     100.00

 eigenvalues of (default mixing * dielectric matrix)
  average eigenvalue GAMMA=   1.3891
  9.4384  2.5078  2.5078  1.8583  1.6387  1.1183  1.1183  0.9325  0.9325  0.7841
  0.7841  0.3099  0.3099  0.6794  0.5647  0.5647  0.4556  0.4556  0.4231  0.3985

 Free energy of the ion-electron system (eV)
  ---------------------------------------------------
  alpha Z        PSCENC =        16.72222345
  Ewald energy   TEWEN  =     25427.48178786
  -Hartree energ DENC   =    -43132.88438956
  -exchange      EXHF   =         0.00000000
  -V(xc)+E(xc)   XCENC  =       619.41591671
  PAW double counting   =     18068.11525607   -19569.38327462
  entropy T*S    EENTRO =         0.00000000
  eigenvalues    EBANDS =      -938.63251604
  atomic energy  EATOM  =     19473.09818521
  Solvation  Ediel_sol  =         0.00000000
  ---------------------------------------------------
  free energy    TOTEN  =       -36.06681092 eV

  energy without entropy =      -36.06681092  energy(sigma->0) =      -36.06681092


--------------------------------------------------------------------------------------------------------




----------------------------------------- Iteration    1(  26)  ---------------------------------------


    POTLOK:  cpu time    0.4425: real time    0.4429
    SETDIJ:  cpu time    0.0091: real time    0.0091
     EDDAV:  cpu time    1.8919: real time    1.8935
       DOS:  cpu time    0.0001: real time    0.0001
    CHARGE:  cpu time    0.1237: real time    0.1237
    MIXING:  cpu time    0.0314: real time    0.0314
    --------------------------------------------
      LOOP:  cpu time    2.5020: real time    2.5069

 eigenvalue-minimisations  :   468
 total energy-change (2. order) :-0.4003332E-01  (-0.5929323E-03)
 number of electron     154.0000133 magnetization       0.0332899
 augmentation part       98.8504693 magnetization       0.0318643

 Broyden mixing:
  rms(total) = 0.16509E-01    rms(broyden)= 0.16505E-01
  rms(prec ) = 0.17567E-01
  weight for this iteration     100.00

 eigenvalues of (default mixing * dielectric matrix)
  average eigenvalue GAMMA=   1.3930
  9.3046  2.6059  2.6059  2.0904  2.0904  1.1166  1.1166  0.9300  0.9300  0.8570
  0.8570  0.6706  0.6706  0.3099  0.3099  0.5966  0.4682  0.4504  0.4504  0.4206
  0.4007

 Free energy of the ion-electron system (eV)
  ---------------------------------------------------
  alpha Z        PSCENC =        16.72222345
  Ewald energy   TEWEN  =     25427.48178786
  -Hartree energ DENC   =    -43130.84773368
  -exchange      EXHF   =         0.00000000
  -V(xc)+E(xc)   XCENC  =       619.33665292
  PAW double counting   =     18069.51654660   -19570.28081407
  entropy T*S    EENTRO =         0.00000000
  eigenvalues    EBANDS =      -941.13369253
  atomic energy  EATOM  =     19473.09818521
  Solvation  Ediel_sol  =         0.00000000
  ---------------------------------------------------
  free energy    TOTEN  =       -36.10684424 eV

  energy without entropy =      -36.10684424  energy(sigma->0) =      -36.10684424


--------------------------------------------------------------------------------------------------------




----------------------------------------- Iteration    1(  27)  ---------------------------------------


    POTLOK:  cpu time    0.4430: real time    0.4434
    SETDIJ:  cpu time    0.0091: real time    0.0091
     EDDAV:  cpu time    2.1457: real time    2.1475
       DOS:  cpu time    0.0001: real time    0.0001
    CHARGE:  cpu time    0.1218: real time    0.1221
    MIXING:  cpu time    0.0338: real time    0.0338
    --------------------------------------------
      LOOP:  cpu time    2.7569: real time    2.7620

 eigenvalue-minimisations  :   552
 total energy-change (2. order) :-0.2076087E-01  (-0.3245764E-03)
 number of electron     154.0000133 magnetization       0.0219866
 augmentation part       98.8709722 magnetization       0.0106673

 Broyden mixing:
  rms(total) = 0.18883E-01    rms(broyden)= 0.18882E-01
  rms(prec ) = 0.19875E-01
  weight for this iteration     100.00

 eigenvalues of (default mixing * dielectric matrix)
  average eigenvalue GAMMA=   1.4095
  9.2870  3.5386  2.4064  2.4064  1.9606  1.1178  1.1178  0.9293  0.9293  0.9321
  0.9321  0.7507  0.7507  0.3099  0.3099  0.5881  0.5881  0.4524  0.4524  0.4275
  0.4275  0.3940

 Free energy of the ion-electron system (eV)
  ---------------------------------------------------
  alpha Z        PSCENC =        16.72222345
  Ewald energy   TEWEN  =     25427.48178786
  -Hartree energ DENC   =    -43128.75929375
  -exchange      EXHF   =         0.00000000
  -V(xc)+E(xc)   XCENC  =       619.28467863
  PAW double counting   =     18069.71304293   -19570.28708492
  entropy T*S    EENTRO =         0.00000000
  eigenvalues    EBANDS =      -943.38114452
  atomic energy  EATOM  =     19473.09818521
  Solvation  Ediel_sol  =         0.00000000
  ---------------------------------------------------
  free energy    TOTEN  =       -36.12760511 eV

  energy without entropy =      -36.12760511  energy(sigma->0) =      -36.12760511


--------------------------------------------------------------------------------------------------------




----------------------------------------- Iteration    1(  28)  ---------------------------------------


    POTLOK:  cpu time    0.4425: real time    0.4430
    SETDIJ:  cpu time    0.0091: real time    0.0091
     EDDAV:  cpu time    2.0096: real time    2.0206
       DOS:  cpu time    0.0001: real time    0.0001
    CHARGE:  cpu time    0.1238: real time    0.1238
    MIXING:  cpu time    0.0367: real time    0.0367
    --------------------------------------------
      LOOP:  cpu time    2.6251: real time    2.6394

 eigenvalue-minimisations  :   508
 total energy-change (2. order) :-0.1178346E-01  (-0.1029382E-03)
 number of electron     154.0000132 magnetization       0.0431913
 augmentation part       98.8747255 magnetization       0.0336845

 Broyden mixing:
  rms(total) = 0.16322E-01    rms(broyden)= 0.16321E-01
  rms(prec ) = 0.17340E-01
  weight for this iteration     100.00

 eigenvalues of (default mixing * dielectric matrix)
  average eigenvalue GAMMA=   1.3913
  9.1263  3.9080  2.4966  2.4966  1.8663  1.1189  1.1189  0.9287  0.9287  0.9361
  0.9361  0.9137  0.6669  0.6669  0.3099  0.3099  0.5558  0.5558  0.4538  0.4538
  0.3985  0.4273  0.4273

 Free energy of the ion-electron system (eV)
  ---------------------------------------------------
  alpha Z        PSCENC =        16.72222345
  Ewald energy   TEWEN  =     25427.48178786
  -Hartree energ DENC   =    -43127.41886403
  -exchange      EXHF   =         0.00000000
  -V(xc)+E(xc)   XCENC  =       619.26754004
  PAW double counting   =     18067.72178395   -19568.31905410
  entropy T*S    EENTRO =         0.00000000
  eigenvalues    EBANDS =      -944.69299095
  atomic energy  EATOM  =     19473.09818521
  Solvation  Ediel_sol  =         0.00000000
  ---------------------------------------------------
  free energy    TOTEN  =       -36.13938857 eV

  energy without entropy =      -36.13938857  energy(sigma->0) =      -36.13938857


--------------------------------------------------------------------------------------------------------




----------------------------------------- Iteration    1(  29)  ---------------------------------------


    POTLOK:  cpu time    0.4424: real time    0.4430
    SETDIJ:  cpu time    0.0091: real time    0.0091
     EDDAV:  cpu time    1.9999: real time    2.0021
       DOS:  cpu time    0.0001: real time    0.0001
    CHARGE:  cpu time    0.1212: real time    0.1213
    MIXING:  cpu time    0.0405: real time    0.0405
    --------------------------------------------
      LOOP:  cpu time    2.6166: real time    2.6221

 eigenvalue-minimisations  :   504
 total energy-change (2. order) :-0.1140950E-02  (-0.2890475E-04)
 number of electron     154.0000132 magnetization       0.0487314
 augmentation part       98.8702368 magnetization       0.0391464

 Broyden mixing:
  rms(total) = 0.12722E-01    rms(broyden)= 0.12722E-01
  rms(prec ) = 0.13563E-01
  weight for this iteration     100.00

 eigenvalues of (default mixing * dielectric matrix)
  average eigenvalue GAMMA=   1.4030
  8.9947  4.1616  2.5964  2.5964  2.0753  1.1189  1.1189  1.1766  1.1766  0.9268
  0.9268  0.8145  0.8145  0.3099  0.3099  0.6758  0.6108  0.6108  0.5065  0.4527
  0.4527  0.4241  0.4241  0.3963

 Free energy of the ion-electron system (eV)
  ---------------------------------------------------
  alpha Z        PSCENC =        16.72222345
  Ewald energy   TEWEN  =     25427.48178786
  -Hartree energ DENC   =    -43126.98398286
  -exchange      EXHF   =         0.00000000
  -V(xc)+E(xc)   XCENC  =       619.27161687
  PAW double counting   =     18067.40394041   -19568.11574744
  entropy T*S    EENTRO =         0.00000000
  eigenvalues    EBANDS =      -945.01855301
  atomic energy  EATOM  =     19473.09818521
  Solvation  Ediel_sol  =         0.00000000
  ---------------------------------------------------
  free energy    TOTEN  =       -36.14052952 eV

  energy without entropy =      -36.14052952  energy(sigma->0) =      -36.14052952


--------------------------------------------------------------------------------------------------------




----------------------------------------- Iteration    1(  30)  ---------------------------------------


    POTLOK:  cpu time    0.4425: real time    0.4427
    SETDIJ:  cpu time    0.0091: real time    0.0091
     EDDAV:  cpu time    1.9816: real time    1.9839
       DOS:  cpu time    0.0001: real time    0.0001
    CHARGE:  cpu time    0.1247: real time    0.1248
    MIXING:  cpu time    0.0451: real time    0.0451
    --------------------------------------------
      LOOP:  cpu time    2.6065: real time    2.6116

 eigenvalue-minimisations  :   496
 total energy-change (2. order) :-0.1377640E-02  (-0.5145295E-04)
 number of electron     154.0000132 magnetization       0.0241297
 augmentation part       98.8572749 magnetization       0.0159435

 Broyden mixing:
  rms(total) = 0.66988E-02    rms(broyden)= 0.66980E-02
  rms(prec ) = 0.71642E-02
  weight for this iteration     100.00

 eigenvalues of (default mixing * dielectric matrix)
  average eigenvalue GAMMA=   1.4136
  9.0866  4.0130  2.6899  2.6899  2.2881  1.6066  1.1191  1.1191  0.9289  0.9289
  1.0967  0.9454  0.9454  0.7350  0.7350  0.3099  0.3099  0.5851  0.5851  0.4755
  0.4517  0.4517  0.3957  0.4234  0.4234

 Free energy of the ion-electron system (eV)
  ---------------------------------------------------
  alpha Z        PSCENC =        16.72222345
  Ewald energy   TEWEN  =     25427.48178786
  -Hartree energ DENC   =    -43126.57524463
  -exchange      EXHF   =         0.00000000
  -V(xc)+E(xc)   XCENC  =       619.28182702
  PAW double counting   =     18067.93240650   -19568.90072486
  entropy T*S    EENTRO =         0.00000000
  eigenvalues    EBANDS =      -945.18236771
  atomic energy  EATOM  =     19473.09818521
  Solvation  Ediel_sol  =         0.00000000
  ---------------------------------------------------
  free energy    TOTEN  =       -36.14190716 eV

  energy without entropy =      -36.14190716  energy(sigma->0) =      -36.14190716


--------------------------------------------------------------------------------------------------------




----------------------------------------- Iteration    1(  31)  ---------------------------------------


    POTLOK:  cpu time    0.4414: real time    0.4415
    SETDIJ:  cpu time    0.0091: real time    0.0091
     EDDAV:  cpu time    2.0015: real time    2.0039
       DOS:  cpu time    0.0001: real time    0.0001
    CHARGE:  cpu time    0.1219: real time    0.1220
    MIXING:  cpu time    0.0503: real time    0.0503
    --------------------------------------------
      LOOP:  cpu time    2.6274: real time    2.6715

 eigenvalue-minimisations  :   504
 total energy-change (2. order) :-0.1906903E-02  (-0.3773037E-04)
 number of electron     154.0000132 magnetization       0.0142092
 augmentation part       98.8525206 magnetization       0.0108348

 Broyden mixing:
  rms(total) = 0.35314E-02    rms(broyden)= 0.35306E-02
  rms(prec ) = 0.38901E-02
  weight for this iteration     100.00

 eigenvalues of (default mixing * dielectric matrix)
  average eigenvalue GAMMA=   1.4188
  9.0578  4.4234  2.6908  2.6908  2.4319  1.6824  1.1193  1.1193  0.9279  0.9279
  1.1690  1.0099  1.0099  0.8046  0.8046  0.3099  0.3099  0.6003  0.6003  0.5796
  0.4769  0.4502  0.4502  0.3960  0.4230  0.4230

 Free energy of the ion-electron system (eV)
  ---------------------------------------------------
  alpha Z        PSCENC =        16.72222345
  Ewald energy   TEWEN  =     25427.48178786
  -Hartree energ DENC   =    -43125.85805873
  -exchange      EXHF   =         0.00000000
  -V(xc)+E(xc)   XCENC  =       619.27668517
  PAW double counting   =     18067.92481470   -19568.98484144
  entropy T*S    EENTRO =         0.00000000
  eigenvalues    EBANDS =      -945.80461028
  atomic energy  EATOM  =     19473.09818521
  Solvation  Ediel_sol  =         0.00000000
  ---------------------------------------------------
  free energy    TOTEN  =       -36.14381406 eV

  energy without entropy =      -36.14381406  energy(sigma->0) =      -36.14381406


--------------------------------------------------------------------------------------------------------




----------------------------------------- Iteration    1(  32)  ---------------------------------------


    POTLOK:  cpu time    0.4415: real time    0.4416
    SETDIJ:  cpu time    0.0091: real time    0.0091
     EDDAV:  cpu time    1.7815: real time    1.7829
       DOS:  cpu time    0.0001: real time    0.0001
    CHARGE:  cpu time    0.1242: real time    0.1242
    MIXING:  cpu time    0.0567: real time    0.0569
    --------------------------------------------
      LOOP:  cpu time    2.4163: real time    2.4210

 eigenvalue-minimisations  :   432
 total energy-change (2. order) :-0.2457497E-03  (-0.1065368E-04)
 number of electron     154.0000132 magnetization       0.0122669
 augmentation part       98.8495087 magnetization       0.0110180

 Broyden mixing:
  rms(total) = 0.21197E-02    rms(broyden)= 0.21191E-02
  rms(prec ) = 0.23938E-02
[...]
     86      -1.3336      0.00000
     87      -1.1210      0.00000
     88      -0.8620      0.00000
     89      -0.8502      0.00000
     90      -0.7393      0.00000
     91      -0.4132      0.00000
     92      -0.2494      0.00000
     93      -0.1007      0.00000
     94       0.1318      0.00000
     95       0.1964      0.00000
     96       0.2405      0.00000
     97       0.3965      0.00000
     98       0.4387      0.00000
     99       0.4689      0.00000
    100       0.4835      0.00000


--------------------------------------------------------------------------------------------------------


 soft charge-density along one line, spin component           1
         0         1         2         3         4         5         6         7         8         9
 total charge-density along one line
 
 soft charge-density along one line, spin component           2
         0         1         2         3         4         5         6         7         8         9
 total charge-density along one line
 
 pseudopotential strength for first ion, spin component:           1
-11.079  -0.017   0.044   0.010  -0.005   1.457   0.013  -0.034
 -0.017 -11.081   0.005  -0.032  -0.005   0.013   1.459  -0.004
  0.044   0.005 -11.091  -0.008   0.018  -0.034  -0.004   1.467
  0.010  -0.032  -0.008 -11.098  -0.016  -0.008   0.025   0.006
 -0.005  -0.005   0.018  -0.016 -11.077   0.004   0.004  -0.014
  1.457   0.013  -0.034  -0.008   0.004   5.967  -0.010   0.024
  0.013   1.459  -0.004   0.025   0.004  -0.010   5.966   0.003
 -0.034  -0.004   1.467   0.006  -0.014   0.024   0.003   5.962
 -0.008   0.025   0.006   1.472   0.012   0.007  -0.016  -0.005
  0.004   0.004  -0.014   0.012   1.455  -0.003  -0.003   0.009
  0.010  -0.002   0.003   0.003   0.004  -0.002   0.003   0.001
  0.018  -0.003   0.005   0.006   0.007  -0.002   0.005   0.002
  0.004  -0.003   0.003   0.000   0.006  -0.005   0.005  -0.006
  0.000  -0.007  -0.003   0.004   0.000   0.000   0.009   0.006
 -0.006   0.000  -0.002  -0.002   0.003   0.009   0.000   0.004
  0.005  -0.005   0.005   0.000   0.009  -0.008   0.009  -0.008
  0.000  -0.009  -0.005   0.005   0.000   0.000   0.013   0.010
 -0.009   0.000  -0.003  -0.004   0.005   0.014   0.000   0.005
 pseudopotential strength for first ion, spin component:           2
-11.079  -0.017   0.044   0.010  -0.005   1.457   0.013  -0.034
 -0.017 -11.081   0.005  -0.032  -0.005   0.013   1.459  -0.004
  0.044   0.005 -11.091  -0.008   0.018  -0.034  -0.004   1.467
  0.010  -0.032  -0.008 -11.098  -0.016  -0.008   0.025   0.006
 -0.005  -0.005   0.018  -0.016 -11.077   0.004   0.004  -0.014
  1.457   0.013  -0.034  -0.008   0.004   5.967  -0.010   0.024
  0.013   1.459  -0.004   0.025   0.004  -0.010   5.966   0.003
 -0.034  -0.004   1.467   0.006  -0.014   0.024   0.003   5.962
 -0.008   0.025   0.006   1.472   0.012   0.007  -0.016  -0.005
  0.004   0.004  -0.014   0.012   1.455  -0.003  -0.003   0.009
  0.010  -0.002   0.003   0.003   0.004  -0.002   0.003   0.001
  0.018  -0.003   0.005   0.006   0.007  -0.002   0.005   0.002
  0.004  -0.003   0.003   0.000   0.006  -0.005   0.005  -0.006
  0.000  -0.007  -0.003   0.004   0.000   0.000   0.009   0.006
 -0.006   0.000  -0.002  -0.002   0.003   0.009   0.000   0.004
  0.005  -0.005   0.005   0.000   0.009  -0.008   0.009  -0.008
  0.000  -0.009  -0.005   0.005   0.000   0.000   0.013   0.010
 -0.009   0.000  -0.003  -0.004   0.005   0.014   0.000   0.005
 total augmentation occupancy for first ion, spin component:           1
  1.927  -0.007   0.021   0.009  -0.004  -0.021   0.001  -0.011  -0.001   0.006  -0.020  -0.005   0.010   0.005  -0.001   0.000
 -0.007   1.921   0.004   0.000   0.002   0.001  -0.014   0.000   0.007  -0.003   0.001  -0.004  -0.017  -0.008  -0.003   0.004
  0.021   0.004   1.924  -0.001   0.012  -0.011   0.000  -0.014  -0.001  -0.007   0.021  -0.010  -0.014  -0.016   0.008   0.002
  0.009   0.000  -0.001   1.934  -0.006  -0.001   0.007  -0.001  -0.009  -0.000   0.001   0.005   0.004   0.003  -0.007  -0.000
 -0.004   0.002   0.012  -0.006   1.924   0.006  -0.003  -0.007  -0.000  -0.026  -0.015  -0.005   0.004   0.006  -0.002   0.001
 -0.021   0.001  -0.011  -0.001   0.006   0.016  -0.001  -0.000   0.002   0.001   0.047  -0.002  -0.009   0.002   0.021   0.000
  0.001  -0.014   0.000   0.007  -0.003  -0.001   0.017   0.001   0.002  -0.001   0.014  -0.001   0.006   0.009   0.004  -0.000
 -0.011   0.000  -0.014  -0.001  -0.007  -0.000   0.001   0.021  -0.000  -0.001   0.036  -0.004  -0.015   0.009   0.009   0.001
 -0.001   0.007  -0.001  -0.009  -0.000   0.002   0.002  -0.000   0.022  -0.001  -0.010   0.000   0.002  -0.004   0.006  -0.000
  0.006  -0.003  -0.007  -0.000  -0.026   0.001  -0.001  -0.001  -0.001   0.014   0.032  -0.001  -0.020  -0.000  -0.017   0.001
 -0.020   0.001   0.021   0.001  -0.015   0.047   0.014   0.036  -0.010   0.032   1.786  -0.170   0.073  -0.005  -0.042  -0.013
 -0.005  -0.004  -0.010   0.005  -0.005  -0.002  -0.001  -0.004   0.000  -0.001  -0.170   0.021  -0.022  -0.004   0.013   0.002
  0.010  -0.017  -0.014   0.004   0.004  -0.009   0.006  -0.015   0.002  -0.020   0.073  -0.022   0.180   0.008   0.037  -0.012
  0.005  -0.008  -0.016   0.003   0.006   0.002   0.009   0.009  -0.004  -0.000  -0.005  -0.004   0.008   0.269  -0.009  -0.001
 -0.001  -0.003   0.008  -0.007  -0.002   0.021   0.004   0.009   0.006  -0.017  -0.042   0.013   0.037  -0.009   0.224  -0.002
  0.000   0.004   0.002  -0.000   0.001   0.000  -0.000   0.001  -0.000   0.001  -0.013   0.002  -0.012  -0.001  -0.002   0.001
 -0.000   0.000   0.003  -0.001   0.000  -0.000  -0.001  -0.000   0.001  -0.000  -0.000   0.000  -0.001  -0.018   0.000   0.000
 -0.001  -0.000  -0.001   0.004   0.000  -0.001  -0.000  -0.001  -0.000   0.001   0.008  -0.001  -0.002   0.000  -0.015   0.000
 total augmentation occupancy for first ion, spin component:           2
 -0.000   0.000  -0.000   0.000   0.000  -0.000  -0.000   0.000   0.000   0.000   0.000  -0.000  -0.000  -0.000   0.000   0.000
  0.000  -0.000   0.000   0.000   0.000  -0.000  -0.000   0.000  -0.000   0.000   0.000  -0.000  -0.000   0.000  -0.000   0.000
 -0.000   0.000   0.000  -0.000  -0.000   0.000   0.000   0.000   0.000  -0.000   0.000  -0.000   0.000  -0.000  -0.000  -0.000
  0.000   0.000  -0.000  -0.000   0.000   0.000  -0.000   0.000  -0.000  -0.000   0.000  -0.000  -0.000  -0.000   0.000   0.000
  0.000   0.000  -0.000   0.000   0.000   0.000   0.000  -0.000   0.000   0.000  -0.000   0.000   0.000   0.000   0.000  -0.000
 -0.000  -0.000   0.000   0.000   0.000   0.000   0.000  -0.000  -0.000   0.000  -0.000   0.000   0.000   0.000   0.000  -0.000
 -0.000  -0.000   0.000  -0.000   0.000   0.000   0.000  -0.000   0.000  -0.000   0.000   0.000  -0.000  -0.000  -0.000  -0.000
  0.000   0.000   0.000   0.000  -0.000  -0.000  -0.000  -0.000  -0.000   0.000   0.000   0.000  -0.000   0.000   0.000   0.000
  0.000  -0.000   0.000  -0.000   0.000  -0.000   0.000  -0.000  -0.000   0.000  -0.000  -0.000  -0.000  -0.000   0.000   0.000
  0.000   0.000  -0.000  -0.000   0.000   0.000  -0.000   0.000   0.000  -0.000   0.000  -0.000   0.000   0.000  -0.000   0.000
  0.000   0.000   0.000   0.000  -0.000  -0.000   0.000   0.000  -0.000   0.000  -0.000  -0.000   0.000   0.000  -0.000  -0.000
 -0.000  -0.000  -0.000  -0.000   0.000   0.000   0.000   0.000  -0.000  -0.000  -0.000   0.000   0.000   0.000   0.000   0.000
 -0.000  -0.000   0.000  -0.000   0.000   0.000  -0.000  -0.000  -0.000   0.000   0.000   0.000  -0.000   0.000  -0.000   0.000
 -0.000   0.000  -0.000  -0.000   0.000   0.000  -0.000   0.000  -0.000   0.000   0.000   0.000   0.000   0.000   0.000  -0.000
  0.000  -0.000  -0.000   0.000   0.000   0.000  -0.000   0.000   0.000  -0.000  -0.000   0.000  -0.000   0.000  -0.000  -0.000
  0.000   0.000  -0.000   0.000  -0.000  -0.000  -0.000   0.000   0.000   0.000  -0.000   0.000   0.000  -0.000  -0.000   0.000
  0.000  -0.000   0.000   0.000  -0.000  -0.000   0.000  -0.000  -0.000  -0.000  -0.000  -0.000  -0.000  -0.000  -0.000   0.000
 -0.000   0.000   0.000  -0.000  -0.000  -0.000   0.000  -0.000   0.000   0.000   0.000  -0.000  -0.000  -0.000   0.000  -0.000


------------------------ aborting loop because EDIFF is reached ----------------------------------------


 


 total charge     
 
# of ion     s       p       d       tot
----------------------------------------
  1        0.446   0.357   9.207  10.011
  2        0.467   0.137   9.289   9.893
  3        0.454   0.172   9.275   9.901
  4        0.451   0.168   9.281   9.899
  5        0.473   0.231   9.232   9.936
  6        0.431   0.248   9.246   9.926
  7        0.433   0.344   9.219   9.996
  8        0.451   0.203   9.248   9.902
  9        0.440   0.253   9.239   9.932
 10        0.450   0.218   9.263   9.932
 11        0.448   0.228   9.261   9.937
 12        0.491   0.130   9.273   9.894
 13        0.464   0.181   9.265   9.910
 14        0.477   0.136   9.278   9.891
------------------------------------------------
tot        6.376   3.006 129.578 138.961
 


 magnetization (x)
 
# of ion     s       p       d       tot
----------------------------------------
  1       -0.000  -0.000  -0.000  -0.000
  2       -0.000   0.000  -0.000  -0.000
  3       -0.000  -0.000  -0.000  -0.000
  4       -0.000   0.000  -0.000  -0.000
  5       -0.000  -0.000  -0.000  -0.000
  6       -0.000  -0.000  -0.000  -0.000
  7       -0.000  -0.000  -0.000  -0.000
  8       -0.000   0.000  -0.000  -0.000
  9       -0.000  -0.000  -0.000  -0.000
 10       -0.000  -0.000  -0.000  -0.000
 11       -0.000  -0.000  -0.000  -0.000
 12       -0.000   0.000  -0.000  -0.000
 13       -0.000  -0.000  -0.000  -0.000
 14       -0.000   0.000  -0.000  -0.000
------------------------------------------------
tot       -0.000  -0.000  -0.000  -0.000
 
    CHARGE:  cpu time    0.1248: real time    0.1249
    FORLOC:  cpu time    0.0209: real time    0.0209
    FORNL :  cpu time    1.0322: real time    1.0330
    STRESS:  cpu time    1.0139: real time    1.0146
    FORCOR:  cpu time    0.4447: real time    0.4451
    FORHAR:  cpu time    0.0657: real time    0.0657
    MIXING:  cpu time    0.0127: real time    0.0127
    OFIELD:  cpu time    0.0001: real time    0.0001

  FORCE on cell =-STRESS in cart. coord.  units (eV):
  Direction    XX          YY          ZZ          XY          YZ          ZX
  --------------------------------------------------------------------------------------
  Alpha Z    16.72222    16.72222    16.72222
  Ewald    5777.83458  5716.86454 13932.45639  2373.77905  -222.52595  -756.61838
  Hartree 11907.98804 11857.91251 19358.49992  2051.59226  -180.99677  -695.86771
  E(xc)    -898.93250  -898.93375  -897.73418     0.56023    -0.11699    -0.07889
  Local  -19049.99896-18939.26860-34650.49549 -4416.99985   402.71881  1452.73088
  n-local  -337.30201  -337.64495  -333.72381     0.47937    -0.36649    -0.64206
  augment  1314.67528  1314.92507  1310.35098    -4.34120     0.51392     0.24150
  Kinetic  1265.20332  1265.54942  1260.12141    -5.07044     0.66958     0.19939
  Fock        0.00000     0.00000     0.00000     0.00000     0.00000     0.00000
  -------------------------------------------------------------------------------------
  Total      -3.81003    -3.87355    -3.80257    -0.00056    -0.10389    -0.03528
  in kB      -0.71214    -0.72401    -0.71075    -0.00011    -0.01942    -0.00659
  external pressure =       -0.72 kB  Pullay stress =        0.00 kB


 VOLUME and BASIS-vectors are now :
 -----------------------------------------------------------------------------
  energy-cutoff  :      295.45
  volume of cell :     8571.84
      direct lattice vectors                 reciprocal lattice vectors
    20.465613000  0.000000000  0.000000000     0.048862450  0.000000000  0.000000000
     0.000000000 20.465613000  0.000000000     0.000000000  0.048862450  0.000000000
     0.000000000  0.000000000 20.465613000     0.000000000  0.000000000  0.048862450

  length of vectors
    20.465613000 20.465613000 20.465613000     0.048862450  0.048862450  0.048862450


 FORCES acting on ions
    electron-ion (+dipol)            ewald-force                    non-local-force                 convergence-correction
 -----------------------------------------------------------------------------------------------
   -.369E+03 0.752E+03 -.305E+03   0.370E+03 -.753E+03 0.303E+03   -.948E+00 0.120E+01 0.193E+01   0.966E-02 0.296E-02 0.652E-02
   -.400E+03 0.679E+03 -.116E+04   0.397E+03 -.673E+03 0.116E+04   0.350E+01 -.573E+01 0.690E+01   -.642E-02 0.233E-02 0.164E-02
   0.911E+03 0.811E+03 -.775E+03   -.904E+03 -.806E+03 0.771E+03   -.651E+01 -.443E+01 0.418E+01   -.583E-02 0.189E-01 0.209E-03
   -.117E+04 -.350E+03 -.763E+03   0.117E+04 0.347E+03 0.760E+03   0.796E+01 0.285E+01 0.308E+01   -.706E-02 0.440E-02 0.103E-01
   0.378E+03 -.719E+03 -.121E+04   -.378E+03 0.717E+03 0.120E+04   -.274E+00 0.178E+01 0.636E+01   0.210E-02 0.736E-02 -.671E-02
   -.597E+02 -.135E+04 -.268E+03   0.590E+02 0.134E+04 0.268E+03   0.676E+00 0.597E+01 0.758E+00   0.344E-02 -.972E-02 -.684E-02
   0.679E+03 -.537E+03 0.688E+03   -.680E+03 0.537E+03 -.688E+03   0.576E+00 -.148E+00 -.844E-01   -.232E-02 -.801E-02 0.921E-04
   0.101E+04 0.952E+03 0.223E+03   -.100E+04 -.946E+03 -.223E+03   -.470E+01 -.547E+01 0.651E-01   0.743E-02 -.339E-02 0.593E-02
   -.136E+04 -.123E+03 0.156E+03   0.135E+04 0.121E+03 -.155E+03   0.593E+01 0.217E+01 -.203E+00   0.254E-02 -.179E-02 -.493E-02
   0.133E+04 -.582E+03 -.148E+03   -.132E+04 0.580E+03 0.151E+03   -.756E+01 0.192E+01 -.276E+01   -.401E-02 0.108E-01 -.583E-02
   -.618E+03 0.122E+04 0.440E+03   0.617E+03 -.121E+04 -.439E+03   0.537E+00 -.786E+01 -.420E+00   -.631E-03 -.101E-02 0.135E-02
   -.333E+03 -.122E+04 0.674E+03   0.331E+03 0.121E+04 -.669E+03   0.238E+01 0.866E+01 -.443E+01   -.149E-02 -.433E-02 -.368E-02
   -.626E+03 -.454E+02 0.129E+04   0.622E+03 0.439E+02 -.129E+04   0.313E+01 0.151E+01 -.782E+01   -.581E-03 -.663E-02 -.389E-04
   0.639E+03 0.514E+03 0.116E+04   -.635E+03 -.511E+03 -.115E+04   -.397E+01 -.336E+01 -.885E+01   0.619E-02 -.148E-01 0.652E-02
 -----------------------------------------------------------------------------------------------
   -.714E+00 0.105E+01 0.123E+01   0.455E-12 -.171E-12 -.114E-11   0.724E+00 -.931E+00 -.131E+01   0.305E-02 -.295E-02 0.449E-02
 
 
 POSITION                                       TOTAL-FORCE (eV/Angst)
 -----------------------------------------------------------------------------------
     10.49106      9.47732     11.04817        -0.007865     -0.003126     -0.010252
     10.78730      9.09390     13.42388         0.000162     -0.013979     -0.004686
      8.58036      8.88980     12.28885         0.017609     -0.002993      0.007900
     12.03545     10.85978     12.18585         0.009742     -0.006766      0.001181
      9.65853     11.12490     12.84240         0.000841     -0.012810     -0.001386
     10.45133     12.12036     10.74547        -0.002513      0.010590      0.000512
      9.63066     10.78304      8.85051         0.003584      0.007124      0.010856
      8.59305      8.73529      9.68155        -0.006011      0.008980      0.004850
     12.07784     10.65788      9.57789         0.002535      0.001285     -0.004579
      8.30300     10.89227     10.92744        -0.003624     -0.019169     -0.010720
     10.98351      8.62460      8.80582        -0.010923      0.008010     -0.012488
     11.15141     12.56613      8.37821        -0.002663      0.003022      0.011360
     11.36329     10.35936      7.21899        -0.003519      0.012849      0.012486
      9.15251      9.07465      7.28427         0.002645      0.006983     -0.005035
 -----------------------------------------------------------------------------------
    total drift:                                0.012852      0.120448     -0.073743


--------------------------------------------------------------------------------------------------------



  FREE ENERGIE OF THE ION-ELECTRON SYSTEM (eV)
  ---------------------------------------------------
  free  energy   TOTEN  =       -36.14777876 eV

  energy  without entropy=      -36.14777876  energy(sigma->0) =      -36.14777876
 
 d Force = 0.3988981E-03[ 0.272E-03, 0.526E-03]  d Energy = 0.4143667E-03-0.155E-04
 d Force = 0.6029341E+01[ 0.605E+01, 0.601E+01]  d Ewald  = 0.6029350E+01-0.935E-05


--------------------------------------------------------------------------------------------------------


    POTLOK:  cpu time    0.4564: real time    0.4566


--------------------------------------------------------------------------------------------------------


 Conjugate gradient step on ions:
 trial-energy change:   -0.000414  1 .order   -0.000399   -0.000526   -0.000272
  (g-gl).g = 0.335E-03      g.g   = 0.286E-03  gl.gl    = 0.450E-03
 g(Force)  = 0.286E-03   g(Stress)= 0.000E+00 ortho     =-0.126E-04
 gamma     =   0.74473
 trial     =   1.89720
 opt step  =   3.16310  (harmonic =   3.93647) maximal distance =0.00613963
 next E    =   -36.147874   (d E  =  -0.00051)


--------------------------------------------------------------------------------------------------------


  
 reached required accuracy - stopping structural energy minimisation
     LOOP+:  cpu time   21.5626: real time   21.6037
    4ORBIT:  cpu time    0.0000: real time    0.0000
 


 total charge     
 
# of ion     s       p       d       tot
----------------------------------------
  1        0.446   0.357   9.207  10.011
  2        0.467   0.137   9.289   9.893
  3        0.454   0.172   9.275   9.901
  4        0.451   0.168   9.281   9.899
  5        0.473   0.231   9.232   9.936
  6        0.431   0.248   9.246   9.926
  7        0.433   0.344   9.219   9.996
  8        0.451   0.203   9.248   9.902
  9        0.440   0.253   9.239   9.932
 10        0.450   0.218   9.263   9.932
 11        0.448   0.228   9.261   9.937
 12        0.491   0.130   9.273   9.894
 13        0.464   0.181   9.265   9.910
 14        0.477   0.136   9.278   9.891
------------------------------------------------
tot        6.376   3.006 129.578 138.961
 


 magnetization (x)
 
# of ion     s       p       d       tot
----------------------------------------
  1       -0.000  -0.000  -0.000  -0.000
  2       -0.000   0.000  -0.000  -0.000
  3       -0.000  -0.000  -0.000  -0.000
  4       -0.000   0.000  -0.000  -0.000
  5       -0.000  -0.000  -0.000  -0.000
  6       -0.000  -0.000  -0.000  -0.000
  7       -0.000  -0.000  -0.000  -0.000
  8       -0.000   0.000  -0.000  -0.000
  9       -0.000  -0.000  -0.000  -0.000
 10       -0.000  -0.000  -0.000  -0.000
 11       -0.000  -0.000  -0.000  -0.000
 12       -0.000   0.000  -0.000  -0.000
 13       -0.000  -0.000  -0.000  -0.000
 14       -0.000   0.000  -0.000  -0.000
------------------------------------------------
tot       -0.000  -0.000  -0.000  -0.000
 

 total amount of memory used by VASP on root node    79547. kBytes
========================================================================

   base      :      30000. kBytes
   nonl-proj :       3036. kBytes
   fftplans  :      11255. kBytes
   grid      :      28586. kBytes
   one-center:         46. kBytes
   wavefun   :       6624. kBytes
 
  
  
 General timing and accounting informations for this job:
 ========================================================
  
                  Total CPU time used (sec):      244.972
                            User time (sec):      239.525
                          System time (sec):        5.447
                         Elapsed time (sec):      245.686
  
                   Maximum memory used (kb):      145788.
                   Average memory used (kb):           0.
  
                          Minor page faults:       489041
                          Major page faults:            0
                 Voluntary context switches:         2241
