 vasp.5.4.1 05Feb16 (build Apr 11 2020 03:28:46) gamma-only                     
  
 executed on           IFC91_ompi date 2022.06.04  01:40:11
 running on   24 total cores
 distrk:  each k-point on   24 cores,    1 groups
 distr:  one band on NCORES_PER_BAND=   6 cores,    4 groups


--------------------------------------------------------------------------------------------------------


 INCAR:
 POTCAR:    PAW_PBE Cu 22Jun2005                  
 POTCAR:    PAW_PBE Cu 22Jun2005                  
   VRHFIN =Cu: d10 p1                                                           
   LEXCH  = PE                                                                  
   EATOM  =  1390.9808 eV,  102.2342 Ry                                         
                                                                                
   TITEL  = PAW_PBE Cu 22Jun2005                                                
   LULTRA =        F    use ultrasoft PP ?                                      
   IUNSCR =        1    unscreen: 0-lin 1-nonlin 2-no                           
   RPACOR =    2.000    partial core radius                                     
   POMASS =   63.546; ZVAL   =   11.000    mass and valenz                      
   RCORE  =    2.300    outmost cutoff radius                                   
   RWIGS  =    2.200; RWIGS  =    1.164    wigner-seitz radius (au A)           
   ENMAX  =  295.446; ENMIN  =  221.585 eV                                      
   ICORE  =        3    local potential                                         
   LCOR   =        T    correct aug charges                                     
   LPAW   =        T    paw PP                                                  
   EAUG   =  586.980                                                            
   DEXC   =    0.000                                                            
   RMAX   =    2.344    core radius for proj-oper                               
   RAUG   =    1.300    factor for augmentation sphere                          
   RDEP   =    2.302    radius for radial grids                                 
   RDEPT  =    1.771    core radius for aug-charge                              
                                                                                
   Atomic configuration                                                         
    9 entries                                                                   
     n  l   j            E        occ.                                          
     1  0  0.50     -8850.2468   2.0000                                         
     2  0  0.50     -1062.3498   2.0000                                         
     2  1  1.50      -916.8226   6.0000                                         
     3  0  0.50      -114.6929   2.0000                                         
     3  1  1.50       -72.1325   6.0000                                         
     3  2  2.50        -5.0394  10.0000                                         
     4  0  0.50        -4.6097   1.0000                                         
     4  1  0.50        -4.0817   0.0000                                         
     4  3  2.50        -1.3606   0.0000                                         
   Description                                                                  
     l       E           TYP  RCUT    TYP  RCUT                                 
     2     -5.0393973     23  2.200                                             
     2     10.8846608     23  2.200                                             
     0     -4.6097109     23  2.200                                             
     0      8.2520465     23  2.200                                             
     1     -2.7211652     23  2.200                                             
     1     21.7055443     23  2.200                                             
     3      2.7211652     23  2.300                                             
  local pseudopotential read in
  partial core-charges read in
  partial kinetic energy density read in
  atomic valenz-charges read in
  non local Contribution for L=           2  read in
    real space projection operators read in
  non local Contribution for L=           2  read in
    real space projection operators read in
  non local Contribution for L=           0  read in
    real space projection operators read in
  non local Contribution for L=           0  read in
    real space projection operators read in
  non local Contribution for L=           1  read in
    real space projection operators read in
  non local Contribution for L=           1  read in
    real space projection operators read in
    PAW grid and wavefunctions read in
 
   number of l-projection  operators is LMAX  =           6
   number of lm-projection operators is LMMAX =          18
 
  PAW_PBE Cu 22Jun2005                  :
 energy of atom  1       EATOM=-1390.9808
 kinetic energy error for atom=    0.0452 (will be added to EATOM!!)
 
 
 POSCAR: unknown system                          
  positions in direct lattice
  velocities in cartesian coordinates
 exchange correlation table for  LEXCH =        8
   RHO(1)=    0.500       N(1)  =     2000
   RHO(2)=  100.500       N(2)  =     4000
 


--------------------------------------------------------------------------------------------------------


 ion  position               nearest neighbor table
   1  0.385  0.430  0.558-  13 2.42  15 2.44  12 2.47  10 2.47   3 2.50
   2  0.492  0.535  0.423-  14 2.36   6 2.42   4 2.42  13 2.43  11 2.49  12 2.50   5 2.67   9 2.71
                            10 2.71
   3  0.491  0.462  0.616-  10 2.49   8 2.49   9 2.49  15 2.50   1 2.50   7 2.51  13 2.67
   4  0.603  0.581  0.434-   2 2.42  14 2.45  11 2.48   9 2.48   5 2.50
   5  0.598  0.457  0.442-   9 2.48   7 2.49  14 2.49  10 2.49   6 2.50   4 2.50   2 2.67
   6  0.498  0.424  0.375-   2 2.42  14 2.44  10 2.47  12 2.47   5 2.50
   7  0.593  0.416  0.559-   9 2.35  10 2.35   5 2.49   3 2.51
   8  0.490  0.586  0.618-  13 2.41  15 2.45   9 2.47  11 2.48   3 2.49
   9  0.563  0.527  0.538-   7 2.35  11 2.35   8 2.47   4 2.48   5 2.48   3 2.49  10 2.64  13 2.70
                             2 2.71
  10  0.493  0.423  0.498-  12 2.35   7 2.35   6 2.47   1 2.47   3 2.49   5 2.49   9 2.64  13 2.69
                             2 2.71
  11  0.512  0.627  0.503-   9 2.35   4 2.48   8 2.48   2 2.49  13 2.50
  12  0.397  0.456  0.439-  10 2.35   1 2.47   6 2.47  13 2.49   2 2.50
  13  0.429  0.538  0.526-  15 2.36   8 2.41   1 2.42   2 2.43  12 2.49  11 2.50   3 2.67  10 2.69
                             9 2.70
  14  0.570  0.515  0.336-   2 2.36   6 2.44   4 2.45   5 2.49
  15  0.386  0.525  0.635-  13 2.36   1 2.44   8 2.45   3 2.50
 
  LATTYP: Found a simple cubic cell.
 ALAT       =    20.0578770000
  
  Lattice vectors:
  
 A1 = (  20.0578770000,   0.0000000000,   0.0000000000)
 A2 = (   0.0000000000,  20.0578770000,   0.0000000000)
 A3 = (   0.0000000000,   0.0000000000,  20.0578770000)


Analysis of symmetry for initial positions (statically):
=====================================================================
 Subroutine PRICEL returns:
 Original cell was already a primitive cell.
 

 Routine SETGRP: Setting up the symmetry group for a 
 simple cubic supercell.


 Subroutine GETGRP returns: Found  1 space group operations
 (whereof  1 operations were pure point group operations)
 out of a pool of 48 trial point group operations.


The static configuration has the point symmetry C_1 .


Analysis of symmetry for dynamics (positions and initial velocities):
=====================================================================
 Subroutine PRICEL returns:
 Original cell was already a primitive cell.
 

 Routine SETGRP: Setting up the symmetry group for a 
 simple cubic supercell.


 Subroutine GETGRP returns: Found  1 space group operations
 (whereof  1 operations were pure point group operations)
 out of a pool of 48 trial point group operations.


The dynamic configuration has the point symmetry C_1 .


Analysis of structural, dynamic, and magnetic symmetry:
=====================================================================
 Subroutine PRICEL returns:
 Original cell was already a primitive cell.
 

 Routine SETGRP: Setting up the symmetry group for a 
 simple cubic supercell.


 Subroutine GETGRP returns: Found  1 space group operations
 (whereof  1 operations were pure point group operations)
 out of a pool of 48 trial point group operations.


The magnetic configuration has the point symmetry C_1 .


 Subroutine INISYM returns: Found  1 space group operations
 (whereof  1 operations are pure point group operations),
 and found     1 'primitive' translations

 
 
 KPOINTS: Gamma-point only                        
  k-points in reciprocal lattice
Space group operators:
 irot       det(A)        alpha          n_x          n_y          n_z        tau_x        tau_y        tau_z
    1     1.000000     0.000000     1.000000     0.000000     0.000000     0.000000     0.000000     0.000000


--------------------------------------------------------------------------------------------------------




 Dimension of arrays:
   k-points           NKPTS =      1   k-points in BZ     NKDIM =      1   number of bands    NBANDS=    124
   number of dos      NEDOS =    301   number of ions     NIONS =     15
   non local maximal  LDIM  =      6   non local SUM 2l+1 LMDIM =     18
   total plane-waves  NPLWV = 592704
   max r-space proj   IRMAX =      1   max aug-charges    IRDMAX=   2327
   dimension x,y,z NGX =    84 NGY =   84 NGZ =   84
   dimension x,y,z NGXF=   168 NGYF=  168 NGZF=  168
   support grid    NGXF=   168 NGYF=  168 NGZF=  168
   ions per type =              15
 NGX,Y,Z   is equivalent  to a cutoff of   6.96,  6.96,  6.96 a.u.
 NGXF,Y,Z  is equivalent  to a cutoff of  13.92, 13.92, 13.92 a.u.


 I would recommend the setting:
   dimension x,y,z NGX =    84 NGY =   84 NGZ =   84
 SYSTEM =  unknown system                          
 POSCAR =  unknown system                          

 Startparameter for this run:
   NWRITE =      2    write-flag & timer
   PREC   = normal    normal or accurate (medium, high low for compatibility)
   ISTART =      0    job   : 0-new  1-cont  2-samecut
   ICHARG =      2    charge: 1-file 2-atom 10-const
   ISPIN  =      2    spin polarized calculation?
   LNONCOLLINEAR =      F non collinear calculations
   LSORBIT =      F    spin-orbit coupling
   INIWAV =      1    electr: 0-lowe 1-rand  2-diag
   LASPH  =      F    aspherical Exc in radial PAW
   METAGGA=      F    non-selfconsistent MetaGGA calc.

 Electronic Relaxation 1
   ENCUT  =  295.4 eV  21.71 Ry    4.66 a.u.  28.11 28.11 28.11*2*pi/ulx,y,z
   ENINI  =  295.4     initial cutoff
   ENAUG  =  587.0 eV  augmentation charge cutoff
   NELM   =     60;   NELMIN=  2; NELMDL=  0     # of ELM steps 
   EDIFF  = 0.1E-05   stopping-criterion for ELM
   LREAL  =      F    real-space projection
   NLSPLINE    = F    spline interpolate recip. space projectors
   LCOMPAT=      F    compatible to vasp.4.4
   GGA_COMPAT  = T    GGA compatible to vasp.4.4-vasp.4.6
   LMAXPAW     = -100 max onsite density
   LMAXMIX     =    2 max onsite mixed and CHGCAR
   VOSKOWN=      0    Vosko Wilk Nusair interpolation
   ROPT   =    0.00000
 Ionic relaxation
   EDIFFG = -.3E-01   stopping-criterion for IOM
   NSW    =   1000    number of steps for IOM
   NBLOCK =      1;   KBLOCK =   1000    inner block; outer block 
   IBRION =      2    ionic relax: 0-MD 1-quasi-New 2-CG
   NFREE  =      1    steps in history (QN), initial steepest desc. (CG)
   ISIF   =      2    stress and relaxation
   IWAVPR =     11    prediction:  0-non 1-charg 2-wave 3-comb
   ISYM   =      2    0-nonsym 1-usesym 2-fastsym
   LCORR  =      T    Harris-Foulkes like correction to forces

   POTIM  = 0.5000    time-step for ionic-motion
   TEIN   =    0.0    initial temperature
   TEBEG  =    0.0;   TEEND  =   0.0 temperature during run
   SMASS  =  -3.00    Nose mass-parameter (am)
   estimated Nose-frequenzy (Omega)   =  0.10E-29 period in steps =****** mass=  -0.919E-26a.u.
   SCALEE = 1.0000    scale energy and forces
   NPACO  =    256;   APACO  = 16.0  distance and # of slots for P.C.
   PSTRESS=    0.0 pullay stress

  Mass of Ions in am
   POMASS =  63.55
  Ionic Valenz
   ZVAL   =  11.00
  Atomic Wigner-Seitz radii
   RWIGS  =  -1.00
  virtual crystal weights 
   VCA    =   1.00
   NELECT =     165.0000    total number of electrons
   NUPDOWN=      -1.0000    fix difference up-down

 DOS related values:
   EMIN   =  10.00;   EMAX   =-10.00  energy-range for DOS
   EFERMI =   0.00
   ISMEAR =     0;   SIGMA  =   0.00  broadening in eV -4-tet -1-fermi 0-gaus

 Electronic relaxation 2 (details)
   IALGO  =     38    algorithm
   LDIAG  =      T    sub-space diagonalisation (order eigenvalues)
   LSUBROT=      F    optimize rotation matrix (better conditioning)
   TURBO    =      0    0=normal 1=particle mesh
   IRESTART =      0    0=no restart 2=restart with 2 vectors
   NREBOOT  =      0    no. of reboots
   NMIN     =      0    reboot dimension
   EREF     =   0.00    reference energy to select bands
   IMIX   =      4    mixing-type and parameters
     AMIX     =   0.40;   BMIX     =  1.00
     AMIX_MAG =   1.60;   BMIX_MAG =  1.00
     AMIN     =   0.10
     WC   =   100.;   INIMIX=   1;  MIXPRE=   1;  MAXMIX= -45

 Intra band minimization:
   WEIMIN = 0.0010     energy-eigenvalue tresh-hold
   EBREAK =  0.20E-08  absolut break condition
   DEPER  =   0.30     relativ break condition  

   TIME   =   0.40     timestep for ELM

  volume/ion in A,a.u.               =     537.98      3630.45
  Fermi-wavevector in a.u.,A,eV,Ry     =   0.447663  0.845960  2.726637  0.200402
  Thomas-Fermi vector in A             =   1.426690
 
 Write flags
   LWAVE  =      F    write WAVECAR
   LCHARG =      F    write CHGCAR
   LVTOT  =      F    write LOCPOT, total local potential
   LVHAR  =      F    write LOCPOT, Hartree potential only
   LELF   =      F    write electronic localiz. function (ELF)
   LORBIT =     11    0 simple, 1 ext, 2 COOP (PROOUT)


 Dipole corrections
   LMONO  =      F    monopole corrections only (constant potential shift)
   LDIPOL =      F    correct potential (dipole corrections)
   IDIPOL =      0    1-x, 2-y, 3-z, 4-all directions 
   EPSILON=  1.0000000 bulk dielectric constant

 Exchange correlation treatment:
   GGA     =    PE    GGA type
   LEXCH   =     8    internal setting for exchange type
   VOSKOWN=      0    Vosko Wilk Nusair interpolation
   LHFCALC =     F    Hartree Fock is set to
   LHFONE  =     F    Hartree Fock one center treatment
   AEXX    =    0.0000 exact exchange contribution

 Linear response parameters
   LEPSILON=     F    determine dielectric tensor
   LRPA    =     F    only Hartree local field effects (RPA)
   LNABLA  =     F    use nabla operator in PAW spheres
   LVEL    =     F    velocity operator in full k-point grid
   LINTERFAST=   F  fast interpolation
   KINTER  =     0    interpolate to denser k-point grid
   CSHIFT  =0.1000    complex shift for real part using Kramers Kronig
   OMEGAMAX=  -1.0    maximum frequency
   DEG_THRESHOLD= 0.2000000E-02 threshold for treating states as degnerate
   RTIME   =    0.100 relaxation time in fs

 Orbital magnetization related:
   ORBITALMAG=     F  switch on orbital magnetization
   LCHIMAG   =     F  perturbation theory with respect to B field
   DQ        =  0.001000  dq finite difference perturbation B field



--------------------------------------------------------------------------------------------------------


 conjugate gradient relaxation of ions
 charge density and potential will be updated during run
 spin polarized calculation
 Variant of blocked Davidson
 Davidson routine will perform the subspace rotation
 perform sub-space diagonalisation
    after iterative eigenvector-optimisation
 modified Broyden-mixing scheme, WC =      100.0
 initial mixing is a Kerker type mixing with AMIX =  0.4000 and BMIX =      1.0000
 Hartree-type preconditioning will be used
 using additional bands           41
 reciprocal scheme for non local part
 use partial core corrections
 calculate Harris-corrections to forces 
   (improved forces if not selfconsistent)
 use gradient corrections 
 use of overlap-Matrix (Vanderbilt PP)
 Gauss-broadening in eV      SIGMA  =   0.00


--------------------------------------------------------------------------------------------------------


  energy-cutoff  :      295.45
  volume of cell :     8069.65
      direct lattice vectors                 reciprocal lattice vectors
    20.057877000  0.000000000  0.000000000     0.049855725  0.000000000  0.000000000
     0.000000000 20.057877000  0.000000000     0.000000000  0.049855725  0.000000000
     0.000000000  0.000000000 20.057877000     0.000000000  0.000000000  0.049855725

  length of vectors
    20.057877000 20.057877000 20.057877000     0.049855725  0.049855725  0.049855725


 
 k-points in units of 2pi/SCALE and weight: Gamma-point only                        
   0.00000000  0.00000000  0.00000000       1.000
 
 k-points in reciprocal lattice and weights: Gamma-point only                        
   0.00000000  0.00000000  0.00000000       1.000
 
 position of ions in fractional coordinates (direct lattice) 
   0.38524871  0.42979037  0.55847632
   0.49199646  0.53493363  0.42293791
   0.49139938  0.46177036  0.61588104
   0.60326804  0.58077597  0.43377972
   0.59805280  0.45669082  0.44192909
   0.49795444  0.42445824  0.37538145
   0.59286019  0.41559607  0.55876238
   0.49038236  0.58597040  0.61773296
   0.56266670  0.52689640  0.53767712
   0.49256153  0.42274121  0.49827063
   0.51236364  0.62724601  0.50329198
   0.39699839  0.45555666  0.43866122
   0.42898845  0.53765057  0.52613432
   0.56950147  0.51506261  0.33633446
   0.38575744  0.52486068  0.63474938
 
 position of ions in cartesian coordinates  (Angst):
   7.72727124  8.62068238 11.20184933
   9.86840448 10.72963295  8.48323658
   9.85642832  9.26213308 12.35326615
  12.10027614 11.64913297  8.70070027
  11.99566950  9.16024829  8.86415933
   9.98790891  8.51373117  7.52935495
  11.89151677  8.33597485 11.20758709
   9.83602906 11.75332221 12.39041173
  11.28589946 10.56842318 10.78466154
   9.87973858  8.47929119  9.99425101
  10.27692687 12.58122332 10.09496863
   7.96294488  9.13749945  8.79861280
   8.60459756 10.78412900 10.55313748
  11.42299044 10.33106248  6.74615523
   7.73747528 10.52759096 12.73172499
 


--------------------------------------------------------------------------------------------------------


 use parallel FFT for wavefunctions z direction half grid
 k-point  1 :   0.0000 0.0000 0.0000  plane waves:   46583

 maximum and minimum number of plane-waves per node :      7771     7752

 maximum number of plane-waves:     46583
 maximum index in each direction: 
   IXMAX=   28   IYMAX=   28   IZMAX=   28
   IXMIN=  -28   IYMIN=  -28   IZMIN=    0

 WARNING: aliasing errors must be expected set NGX to 114 to avoid them
 WARNING: aliasing errors must be expected set NGY to 114 to avoid them
 WARNING: aliasing errors must be expected set NGZ to 114 to avoid them
 aliasing errors are usually negligible using standard VASP settings
 and one can safely disregard these warnings

 parallel 3D FFT for wavefunctions:
    minimum data exchange during FFTs selected (reduces bandwidth)
 parallel 3D FFT for charge:
    minimum data exchange during FFTs selected (reduces bandwidth)


 total amount of memory used by VASP on root node    71924. kBytes
========================================================================

   base      :      30000. kBytes
   nonl-proj :       2984. kBytes
   fftplans  :       8861. kBytes
   grid      :      22296. kBytes
   one-center:         46. kBytes
   wavefun   :       7737. kBytes
 
     INWAV:  cpu time    0.0000: real time    0.0000
 Broyden mixing: mesh for mixing (old mesh)
   NGX = 57   NGY = 57   NGZ = 57
  (NGX  =168   NGY  =168   NGZ  =168)
  gives a total of 185193 points

 initial charge density was supplied:
 charge density of overlapping atoms calculated
 number of electron     165.0000000 magnetization      45.0000000
 keeping initial charge density in first step


--------------------------------------------------------------------------------------------------------


 Maximum index for augmentation-charges          198 (set IRDMAX)


--------------------------------------------------------------------------------------------------------


 First call to EWALD:  gamma=   0.088
 Maximum number of real-space cells 3x 3x 3
 Maximum number of reciprocal cells 3x 3x 3

 FEWALD executed in parallel
    FEWALD:  cpu time    0.0019: real time    0.0019


----------------------------------------- Iteration    1(   1)  ---------------------------------------


    POTLOK:  cpu time    0.3148: real time    0.3164
    SETDIJ:  cpu time    0.0084: real time    0.0084
     EDDAV:  cpu time    1.8321: real time    1.8342
       DOS:  cpu time    0.0003: real time    0.0003
    --------------------------------------------
      LOOP:  cpu time    2.1583: real time    2.1782

 eigenvalue-minimisations  :   496
 total energy-change (2. order) : 0.1073750E+04  (-0.3100714E+04)
 number of electron     165.0000000 magnetization      45.0000000
 augmentation part      165.0000000 magnetization      45.0000000

 Free energy of the ion-electron system (eV)
  ---------------------------------------------------
  alpha Z        PSCENC =        20.39106223
  Ewald energy   TEWEN  =     28120.76466187
  -Hartree energ DENC   =    -47135.70996236
  -exchange      EXHF   =         0.00000000
  -V(xc)+E(xc)   XCENC  =       689.06441999
  PAW double counting   =     18408.25769704   -19993.43815285
  entropy T*S    EENTRO =        -0.00000005
  eigenvalues    EBANDS =       100.38665858
  atomic energy  EATOM  =     20864.03376987
  Solvation  Ediel_sol  =         0.00000000
  ---------------------------------------------------
  free energy    TOTEN  =      1073.75015433 eV

  energy without entropy =     1073.75015437  energy(sigma->0) =     1073.75015435


--------------------------------------------------------------------------------------------------------




----------------------------------------- Iteration    1(   2)  ---------------------------------------


     EDDAV:  cpu time    1.8739: real time    1.8813
       DOS:  cpu time    0.0001: real time    0.0001
    --------------------------------------------
      LOOP:  cpu time    1.8763: real time    1.8863

 eigenvalue-minimisations  :   520
 total energy-change (2. order) :-0.9542061E+03  (-0.8267774E+03)
 number of electron     165.0000000 magnetization      45.0000000
 augmentation part      165.0000000 magnetization      45.0000000

 Free energy of the ion-electron system (eV)
  ---------------------------------------------------
  alpha Z        PSCENC =        20.39106223
  Ewald energy   TEWEN  =     28120.76466187
  -Hartree energ DENC   =    -47135.70996236
  -exchange      EXHF   =         0.00000000
  -V(xc)+E(xc)   XCENC  =       689.06441999
  PAW double counting   =     18408.25769704   -19993.43815285
  entropy T*S    EENTRO =         0.00000000
  eigenvalues    EBANDS =      -853.81945620
  atomic energy  EATOM  =     20864.03376987
  Solvation  Ediel_sol  =         0.00000000
  ---------------------------------------------------
  free energy    TOTEN  =       119.54403960 eV

  energy without entropy =      119.54403960  energy(sigma->0) =      119.54403960


--------------------------------------------------------------------------------------------------------




----------------------------------------- Iteration    1(   3)  ---------------------------------------


     EDDAV:  cpu time    2.1640: real time    2.1657
       DOS:  cpu time    0.0001: real time    0.0001
    --------------------------------------------
      LOOP:  cpu time    2.1662: real time    2.1706

 eigenvalue-minimisations  :   624
 total energy-change (2. order) :-0.1332393E+03  (-0.1257703E+03)
 number of electron     165.0000000 magnetization      45.0000000
 augmentation part      165.0000000 magnetization      45.0000000

 Free energy of the ion-electron system (eV)
  ---------------------------------------------------
  alpha Z        PSCENC =        20.39106223
  Ewald energy   TEWEN  =     28120.76466187
  -Hartree energ DENC   =    -47135.70996236
  -exchange      EXHF   =         0.00000000
  -V(xc)+E(xc)   XCENC  =       689.06441999
  PAW double counting   =     18408.25769704   -19993.43815285
  entropy T*S    EENTRO =         0.00000000
  eigenvalues    EBANDS =      -987.05876319
  atomic energy  EATOM  =     20864.03376987
  Solvation  Ediel_sol  =         0.00000000
  ---------------------------------------------------
  free energy    TOTEN  =       -13.69526740 eV

  energy without entropy =      -13.69526740  energy(sigma->0) =      -13.69526740


--------------------------------------------------------------------------------------------------------




----------------------------------------- Iteration    1(   4)  ---------------------------------------


     EDDAV:  cpu time    2.0850: real time    2.0924
       DOS:  cpu time    0.0001: real time    0.0001
    --------------------------------------------
      LOOP:  cpu time    2.0873: real time    2.0974

 eigenvalue-minimisations  :   600
 total energy-change (2. order) :-0.1161029E+02  (-0.1082194E+02)
 number of electron     165.0000000 magnetization      45.0000000
 augmentation part      165.0000000 magnetization      45.0000000

 Free energy of the ion-electron system (eV)
  ---------------------------------------------------
  alpha Z        PSCENC =        20.39106223
  Ewald energy   TEWEN  =     28120.76466187
  -Hartree energ DENC   =    -47135.70996236
  -exchange      EXHF   =         0.00000000
  -V(xc)+E(xc)   XCENC  =       689.06441999
  PAW double counting   =     18408.25769704   -19993.43815285
  entropy T*S    EENTRO =        -0.00000000
  eigenvalues    EBANDS =      -998.66905490
  atomic energy  EATOM  =     20864.03376987
  Solvation  Ediel_sol  =         0.00000000
  ---------------------------------------------------
  free energy    TOTEN  =       -25.30555911 eV

  energy without entropy =      -25.30555911  energy(sigma->0) =      -25.30555911


--------------------------------------------------------------------------------------------------------




----------------------------------------- Iteration    1(   5)  ---------------------------------------


     EDDAV:  cpu time    2.2503: real time    2.2518
       DOS:  cpu time    0.0001: real time    0.0001
    CHARGE:  cpu time    0.0887: real time    0.0887
    MIXING:  cpu time    0.0086: real time    0.0087
    --------------------------------------------
      LOOP:  cpu time    2.3502: real time    2.3546

 eigenvalue-minimisations  :   656
 total energy-change (2. order) :-0.3794090E+00  (-0.3781910E+00)
 number of electron     165.0001439 magnetization      39.8529368
 augmentation part       98.1312446 magnetization      37.9315884

 Broyden mixing:
  rms(total) = 0.68796E+01    rms(broyden)= 0.68781E+01
  rms(prec ) = 0.69613E+01
  weight for this iteration     100.00

 Free energy of the ion-electron system (eV)
  ---------------------------------------------------
  alpha Z        PSCENC =        20.39106223
  Ewald energy   TEWEN  =     28120.76466187
  -Hartree energ DENC   =    -47135.70996236
  -exchange      EXHF   =         0.00000000
  -V(xc)+E(xc)   XCENC  =       689.06441999
  PAW double counting   =     18408.25769704   -19993.43815285
  entropy T*S    EENTRO =         0.00000000
  eigenvalues    EBANDS =      -999.04846395
  atomic energy  EATOM  =     20864.03376987
  Solvation  Ediel_sol  =         0.00000000
  ---------------------------------------------------
  free energy    TOTEN  =       -25.68496815 eV

  energy without entropy =      -25.68496815  energy(sigma->0) =      -25.68496815


--------------------------------------------------------------------------------------------------------




----------------------------------------- Iteration    1(   6)  ---------------------------------------


    POTLOK:  cpu time    0.3141: real time    0.3150
    SETDIJ:  cpu time    0.0087: real time    0.0087
     EDDAV:  cpu time    1.9178: real time    1.9196
       DOS:  cpu time    0.0001: real time    0.0001
    CHARGE:  cpu time    0.0864: real time    0.0864
    MIXING:  cpu time    0.0092: real time    0.0092
    --------------------------------------------
      LOOP:  cpu time    2.3395: real time    2.3451

 eigenvalue-minimisations  :   536
 total energy-change (2. order) : 0.1203517E+03  (-0.6875112E+02)
 number of electron     165.0001641 magnetization      36.3528413
 augmentation part      113.8733699 magnetization      23.4924406

 Broyden mixing:
  rms(total) = 0.30504E+01    rms(broyden)= 0.30481E+01
  rms(prec ) = 0.32136E+01
  weight for this iteration     100.00

 eigenvalues of (default mixing * dielectric matrix)
  average eigenvalue GAMMA=   0.9329
  0.9329

 Free energy of the ion-electron system (eV)
  ---------------------------------------------------
  alpha Z        PSCENC =        20.39106223
  Ewald energy   TEWEN  =     28120.76466187
  -Hartree energ DENC   =    -46733.31115479
  -exchange      EXHF   =         0.00000000
  -V(xc)+E(xc)   XCENC  =       759.16303922
  PAW double counting   =     18456.11796952   -19968.40219203
  entropy T*S    EENTRO =         0.00000000
  eigenvalues    EBANDS =     -1424.09040980
  atomic energy  EATOM  =     20864.03376987
  Solvation  Ediel_sol  =         0.00000000
  ---------------------------------------------------
  free energy    TOTEN  =        94.66674608 eV

  energy without entropy =       94.66674608  energy(sigma->0) =       94.66674608


--------------------------------------------------------------------------------------------------------




----------------------------------------- Iteration    1(   7)  ---------------------------------------


    POTLOK:  cpu time    0.3126: real time    0.3129
    SETDIJ:  cpu time    0.0079: real time    0.0079
     EDDAV:  cpu time    2.0659: real time    2.0671
       DOS:  cpu time    0.0001: real time    0.0001
    CHARGE:  cpu time    0.0859: real time    0.0862
    MIXING:  cpu time    0.0093: real time    0.0093
    --------------------------------------------
      LOOP:  cpu time    2.4850: real time    2.4895

 eigenvalue-minimisations  :   592
 total energy-change (2. order) :-0.1887300E+02  (-0.2811493E+02)
 number of electron     165.0001544 magnetization      32.0281575
 augmentation part      105.8153435 magnetization      18.3809308

 Broyden mixing:
  rms(total) = 0.14609E+01    rms(broyden)= 0.14599E+01
  rms(prec ) = 0.14865E+01
  weight for this iteration     100.00

 eigenvalues of (default mixing * dielectric matrix)
  average eigenvalue GAMMA=   0.8990
  1.1445  0.6535

 Free energy of the ion-electron system (eV)
  ---------------------------------------------------
  alpha Z        PSCENC =        20.39106223
  Ewald energy   TEWEN  =     28120.76466187
  -Hartree energ DENC   =    -47099.72195022
  -exchange      EXHF   =         0.00000000
  -V(xc)+E(xc)   XCENC  =       756.33890621
  PAW double counting   =     19007.75001958   -20650.62111718
  entropy T*S    EENTRO =         0.00000000
  eigenvalues    EBANDS =      -943.14160963
  atomic energy  EATOM  =     20864.03376987
  Solvation  Ediel_sol  =         0.00000000
  ---------------------------------------------------
  free energy    TOTEN  =        75.79374274 eV

  energy without entropy =       75.79374274  energy(sigma->0) =       75.79374274


--------------------------------------------------------------------------------------------------------




----------------------------------------- Iteration    1(   8)  ---------------------------------------


    POTLOK:  cpu time    0.3121: real time    0.3121
    SETDIJ:  cpu time    0.0081: real time    0.0081
     EDDAV:  cpu time    2.2240: real time    2.2306
       DOS:  cpu time    0.0001: real time    0.0001
    CHARGE:  cpu time    0.0864: real time    0.0867
    MIXING:  cpu time    0.0099: real time    0.0099
    --------------------------------------------
      LOOP:  cpu time    2.6440: real time    2.6536

 eigenvalue-minimisations  :   652
 total energy-change (2. order) : 0.1221012E+02  (-0.2288189E+01)
 number of electron     165.0001517 magnetization      29.1681006
 augmentation part      105.9663021 magnetization      15.1850035

 Broyden mixing:
  rms(total) = 0.10451E+01    rms(broyden)= 0.10449E+01
  rms(prec ) = 0.10723E+01
  weight for this iteration     100.00

 eigenvalues of (default mixing * dielectric matrix)
  average eigenvalue GAMMA=   0.8913
  1.2000  0.7539  0.7200

 Free energy of the ion-electron system (eV)
  ---------------------------------------------------
  alpha Z        PSCENC =        20.39106223
  Ewald energy   TEWEN  =     28120.76466187
  -Hartree energ DENC   =    -47129.04000932
  -exchange      EXHF   =         0.00000000
  -V(xc)+E(xc)   XCENC  =       763.62064567
  PAW double counting   =     19327.54923073   -20963.86601955
  entropy T*S    EENTRO =         0.00000000
  eigenvalues    EBANDS =      -915.44948024
  atomic energy  EATOM  =     20864.03376987
  Solvation  Ediel_sol  =         0.00000000
  ---------------------------------------------------
  free energy    TOTEN  =        88.00386126 eV

  energy without entropy =       88.00386126  energy(sigma->0) =       88.00386126


--------------------------------------------------------------------------------------------------------




----------------------------------------- Iteration    1(   9)  ---------------------------------------


    POTLOK:  cpu time    0.3246: real time    0.3247
    SETDIJ:  cpu time    0.0095: real time    0.0095
     EDDAV:  cpu time    2.1475: real time    2.1493
       DOS:  cpu time    0.0001: real time    0.0001
    CHARGE:  cpu time    0.0872: real time    0.0872
    MIXING:  cpu time    0.0109: real time    0.0109
    --------------------------------------------
      LOOP:  cpu time    2.5830: real time    2.5877

 eigenvalue-minimisations  :   620
 total energy-change (2. order) :-0.1907517E+02  (-0.7391975E+00)
 number of electron     165.0001545 magnetization      23.4615526
 augmentation part      106.0110221 magnetization       9.8552777

 Broyden mixing:
  rms(total) = 0.79699E+00    rms(broyden)= 0.79672E+00
  rms(prec ) = 0.81232E+00
  weight for this iteration     100.00

 eigenvalues of (default mixing * dielectric matrix)
  average eigenvalue GAMMA=   1.0259
  1.4528  1.4528  0.6860  0.5120

 Free energy of the ion-electron system (eV)
  ---------------------------------------------------
  alpha Z        PSCENC =        20.39106223
  Ewald energy   TEWEN  =     28120.76466187
  -Hartree energ DENC   =    -47131.65803729
  -exchange      EXHF   =         0.00000000
  -V(xc)+E(xc)   XCENC  =       748.12312062
  PAW double counting   =     19409.82263322   -21038.33904980
  entropy T*S    EENTRO =         0.00000000
  eigenvalues    EBANDS =      -924.20947041
  atomic energy  EATOM  =     20864.03376987
  Solvation  Ediel_sol  =         0.00000000
  ---------------------------------------------------
  free energy    TOTEN  =        68.92869031 eV

  energy without entropy =       68.92869031  energy(sigma->0) =       68.92869031


--------------------------------------------------------------------------------------------------------




----------------------------------------- Iteration    1(  10)  ---------------------------------------


    POTLOK:  cpu time    0.3132: real time    0.3139
    SETDIJ:  cpu time    0.0081: real time    0.0082
     EDDAV:  cpu time    2.1095: real time    2.1112
       DOS:  cpu time    0.0001: real time    0.0001
    CHARGE:  cpu time    0.0868: real time    0.0868
    MIXING:  cpu time    0.0113: real time    0.0113
    --------------------------------------------
      LOOP:  cpu time    2.5324: real time    2.5375

 eigenvalue-minimisations  :   608
 total energy-change (2. order) :-0.3684029E+02  (-0.2585148E+01)
 number of electron     165.0001539 magnetization      20.8485918
 augmentation part      106.5300625 magnetization      10.3870722

 Broyden mixing:
  rms(total) = 0.61413E+00    rms(broyden)= 0.61320E+00
  rms(prec ) = 0.63323E+00
  weight for this iteration     100.00

 eigenvalues of (default mixing * dielectric matrix)
  average eigenvalue GAMMA=   0.9934
  1.7290  1.5693  0.6302  0.6302  0.4082

 Free energy of the ion-electron system (eV)
  ---------------------------------------------------
  alpha Z        PSCENC =        20.39106223
  Ewald energy   TEWEN  =     28120.76466187
  -Hartree energ DENC   =    -47119.06206689
  -exchange      EXHF   =         0.00000000
  -V(xc)+E(xc)   XCENC  =       719.34042671
  PAW double counting   =     19496.28598807   -21109.13663513
  entropy T*S    EENTRO =         0.00000000
  eigenvalues    EBANDS =      -960.52880757
  atomic energy  EATOM  =     20864.03376987
  Solvation  Ediel_sol  =         0.00000000
  ---------------------------------------------------
  free energy    TOTEN  =        32.08839917 eV

  energy without entropy =       32.08839917  energy(sigma->0) =       32.08839917


--------------------------------------------------------------------------------------------------------




----------------------------------------- Iteration    1(  11)  ---------------------------------------


    POTLOK:  cpu time    0.3123: real time    0.3128
    SETDIJ:  cpu time    0.0080: real time    0.0080
     EDDAV:  cpu time    2.2574: real time    2.2586
       DOS:  cpu time    0.0002: real time    0.0002
    CHARGE:  cpu time    0.0868: real time    0.0868
    MIXING:  cpu time    0.0119: real time    0.0119
    --------------------------------------------
      LOOP:  cpu time    2.6799: real time    2.6840

 eigenvalue-minimisations  :   664
 total energy-change (2. order) :-0.8664148E+01  (-0.5947342E+00)
 number of electron     165.0001538 magnetization      17.2455026
 augmentation part      106.2856049 magnetization       7.4989063

 Broyden mixing:
  rms(total) = 0.47591E+00    rms(broyden)= 0.47575E+00
  rms(prec ) = 0.48644E+00
  weight for this iteration     100.00

 eigenvalues of (default mixing * dielectric matrix)
  average eigenvalue GAMMA=   1.1062
  2.4302  1.6870  0.7177  0.7177  0.6211  0.4639

 Free energy of the ion-electron system (eV)
  ---------------------------------------------------
  alpha Z        PSCENC =        20.39106223
  Ewald energy   TEWEN  =     28120.76466187
  -Hartree energ DENC   =    -47130.26774888
  -exchange      EXHF   =         0.00000000
  -V(xc)+E(xc)   XCENC  =       713.21272277
  PAW double counting   =     19527.49797825   -21138.86116447
  entropy T*S    EENTRO =         0.00000000
  eigenvalues    EBANDS =      -953.34703031
  atomic energy  EATOM  =     20864.03376987
  Solvation  Ediel_sol  =         0.00000000
  ---------------------------------------------------
  free energy    TOTEN  =        23.42425134 eV

  energy without entropy =       23.42425134  energy(sigma->0) =       23.42425134


--------------------------------------------------------------------------------------------------------




----------------------------------------- Iteration    1(  12)  ---------------------------------------


    POTLOK:  cpu time    0.3117: real time    0.3121
    SETDIJ:  cpu time    0.0081: real time    0.0081
     EDDAV:  cpu time    2.1196: real time    2.1224
       DOS:  cpu time    0.0001: real time    0.0001
    CHARGE:  cpu time    0.0876: real time    0.0876
    MIXING:  cpu time    0.0125: real time    0.0125
    --------------------------------------------
      LOOP:  cpu time    2.5429: real time    2.5486

 eigenvalue-minimisations  :   608
 total energy-change (2. order) :-0.1778491E+02  (-0.1026386E+01)
 number of electron     165.0001541 magnetization      13.6511810
 augmentation part      106.1587578 magnetization       6.3928062

 Broyden mixing:
  rms(total) = 0.46186E+00    rms(broyden)= 0.46087E+00
  rms(prec ) = 0.47780E+00
  weight for this iteration     100.00

 eigenvalues of (default mixing * dielectric matrix)
  average eigenvalue GAMMA=   1.0990
  3.1140  1.5540  0.7978  0.7978  0.6554  0.4488  0.3255

 Free energy of the ion-electron system (eV)
  ---------------------------------------------------
  alpha Z        PSCENC =        20.39106223
  Ewald energy   TEWEN  =     28120.76466187
  -Hartree energ DENC   =    -47132.85578876
  -exchange      EXHF   =         0.00000000
  -V(xc)+E(xc)   XCENC  =       699.52619687
  PAW double counting   =     19522.60266627   -21131.72177781
  entropy T*S    EENTRO =         0.00000000
  eigenvalues    EBANDS =      -957.10144991
  atomic energy  EATOM  =     20864.03376987
  Solvation  Ediel_sol  =         0.00000000
  ---------------------------------------------------
  free energy    TOTEN  =         5.63934064 eV

  energy without entropy =        5.63934064  energy(sigma->0) =        5.63934064


--------------------------------------------------------------------------------------------------------




----------------------------------------- Iteration    1(  13)  ---------------------------------------


    POTLOK:  cpu time    0.3123: real time    0.3123
    SETDIJ:  cpu time    0.0079: real time    0.0079
     EDDAV:  cpu time    2.2768: real time    2.2785
       DOS:  cpu time    0.0001: real time    0.0001
    CHARGE:  cpu time    0.0869: real time    0.0870
    MIXING:  cpu time    0.0135: real time    0.0135
    --------------------------------------------
      LOOP:  cpu time    2.7009: real time    2.7055

 eigenvalue-minimisations  :   672
 total energy-change (2. order) :-0.1228432E+02  (-0.8150155E+00)
 number of electron     165.0001531 magnetization      10.6196765
 augmentation part      105.7820941 magnetization       4.1120073

 Broyden mixing:
  rms(total) = 0.29032E+00    rms(broyden)= 0.29014E+00
  rms(prec ) = 0.30060E+00
  weight for this iteration     100.00

 eigenvalues of (default mixing * dielectric matrix)
  average eigenvalue GAMMA=   1.2000
  3.9652  1.7691  0.7584  0.7584  0.8165  0.6867  0.4478  0.3975

 Free energy of the ion-electron system (eV)
  ---------------------------------------------------
  alpha Z        PSCENC =        20.39106223
  Ewald energy   TEWEN  =     28120.76466187
  -Hartree energ DENC   =    -47145.93187649
  -exchange      EXHF   =         0.00000000
  -V(xc)+E(xc)   XCENC  =       690.41571303
  PAW double counting   =     19535.75846660   -21145.43137781
  entropy T*S    EENTRO =         0.00000000
  eigenvalues    EBANDS =      -946.64539706
  atomic energy  EATOM  =     20864.03376987
  Solvation  Ediel_sol  =         0.00000000
  ---------------------------------------------------
  free energy    TOTEN  =        -6.64497776 eV

  energy without entropy =       -6.64497776  energy(sigma->0) =       -6.64497776


--------------------------------------------------------------------------------------------------------




----------------------------------------- Iteration    1(  14)  ---------------------------------------


    POTLOK:  cpu time    0.3119: real time    0.3120
    SETDIJ:  cpu time    0.0129: real time    0.0129
     EDDAV:  cpu time    2.2536: real time    2.2611
       DOS:  cpu time    0.0001: real time    0.0001
    CHARGE:  cpu time    0.0876: real time    0.0876
    MIXING:  cpu time    0.0152: real time    0.0152
    --------------------------------------------
      LOOP:  cpu time    2.6846: real time    2.6950

 eigenvalue-minimisations  :   656
 total energy-change (2. order) :-0.1376013E+02  (-0.8753261E+00)
 number of electron     165.0001537 magnetization       8.9449451
 augmentation part      105.8449081 magnetization       4.8583138

 Broyden mixing:
  rms(total) = 0.28412E+00    rms(broyden)= 0.28287E+00
  rms(prec ) = 0.30836E+00
  weight for this iteration     100.00

 eigenvalues of (default mixing * dielectric matrix)
  average eigenvalue GAMMA=   1.1457
  4.3298  1.7302  0.9771  0.7065  0.7065  0.6858  0.4589  0.4068  0.3099

 Free energy of the ion-electron system (eV)
  ---------------------------------------------------
  alpha Z        PSCENC =        20.39106223
  Ewald energy   TEWEN  =     28120.76466187
  -Hartree energ DENC   =    -47135.76816102
  -exchange      EXHF   =         0.00000000
  -V(xc)+E(xc)   XCENC  =       679.44327349
  PAW double counting   =     19492.55514404   -21100.00517290
  entropy T*S    EENTRO =         0.00000000
  eigenvalues    EBANDS =      -961.81968749
  atomic energy  EATOM  =     20864.03376987
  Solvation  Ediel_sol  =         0.00000000
  ---------------------------------------------------
  free energy    TOTEN  =       -20.40510991 eV

  energy without entropy =      -20.40510991  energy(sigma->0) =      -20.40510991


--------------------------------------------------------------------------------------------------------




----------------------------------------- Iteration    1(  15)  ---------------------------------------


    POTLOK:  cpu time    0.3140: real time    0.3145
    SETDIJ:  cpu time    0.0088: real time    0.0090
     EDDAV:  cpu time    2.1933: real time    2.1948
       DOS:  cpu time    0.0001: real time    0.0001
    CHARGE:  cpu time    0.0841: real time    0.0900
    MIXING:  cpu time    0.0149: real time    0.0149
    --------------------------------------------
      LOOP:  cpu time    2.6185: real time    2.6294

 eigenvalue-minimisations  :   640
 total energy-change (2. order) :-0.4095797E+01  (-0.2386026E+00)
 number of electron     165.0001535 magnetization       7.5979675
 augmentation part      105.7360206 magnetization       3.9218061

 Broyden mixing:
  rms(total) = 0.22530E+00    rms(broyden)= 0.22519E+00
  rms(prec ) = 0.24317E+00
  weight for this iteration     100.00

 eigenvalues of (default mixing * dielectric matrix)
  average eigenvalue GAMMA=   1.2180
  4.7617  1.9564  1.0012  1.0012  0.7953  0.7953  0.6062  0.4282  0.4282  0.4058

 Free energy of the ion-electron system (eV)
  ---------------------------------------------------
  alpha Z        PSCENC =        20.39106223
  Ewald energy   TEWEN  =     28120.76466187
  -Hartree energ DENC   =    -47136.93606310
  -exchange      EXHF   =         0.00000000
  -V(xc)+E(xc)   XCENC  =       676.44997345
  PAW double counting   =     19488.26667997   -21095.55571274
  entropy T*S    EENTRO =         0.00000000
  eigenvalues    EBANDS =      -961.91527804
  atomic energy  EATOM  =     20864.03376987
  Solvation  Ediel_sol  =         0.00000000
  ---------------------------------------------------
  free energy    TOTEN  =       -24.50090648 eV

  energy without entropy =      -24.50090648  energy(sigma->0) =      -24.50090648


--------------------------------------------------------------------------------------------------------




----------------------------------------- Iteration    1(  16)  ---------------------------------------


    POTLOK:  cpu time    0.3118: real time    0.3119
    SETDIJ:  cpu time    0.0080: real time    0.0080
     EDDAV:  cpu time    2.1060: real time    2.1083
       DOS:  cpu time    0.0001: real time    0.0001
    CHARGE:  cpu time    0.0859: real time    0.0859
    MIXING:  cpu time    0.0159: real time    0.0159
    --------------------------------------------
      LOOP:  cpu time    2.5311: real time    2.5362

 eigenvalue-minimisations  :   608
 total energy-change (2. order) :-0.4489167E+01  (-0.2278305E+00)
 number of electron     165.0001536 magnetization       5.7580927
 augmentation part      105.7938795 magnetization       2.4969890

 Broyden mixing:
  rms(total) = 0.16683E+00    rms(broyden)= 0.16679E+00
  rms(prec ) = 0.18008E+00
  weight for this iteration     100.00

 eigenvalues of (default mixing * dielectric matrix)
  average eigenvalue GAMMA=   1.3089
  5.4708  2.3474  1.2479  1.2479  0.8053  0.8053  0.6023  0.6023  0.4568  0.4056
  0.4056

 Free energy of the ion-electron system (eV)
  ---------------------------------------------------
  alpha Z        PSCENC =        20.39106223
  Ewald energy   TEWEN  =     28120.76466187
  -Hartree energ DENC   =    -47125.39017307
  -exchange      EXHF   =         0.00000000
  -V(xc)+E(xc)   XCENC  =       672.66248367
  PAW double counting   =     19447.77573107   -21053.82513851
  entropy T*S    EENTRO =         0.00000000
  eigenvalues    EBANDS =      -975.40247038
  atomic energy  EATOM  =     20864.03376987
  Solvation  Ediel_sol  =         0.00000000
  ---------------------------------------------------
  free energy    TOTEN  =       -28.99007325 eV

  energy without entropy =      -28.99007325  energy(sigma->0) =      -28.99007325


--------------------------------------------------------------------------------------------------------




----------------------------------------- Iteration    1(  17)  ---------------------------------------


    POTLOK:  cpu time    0.3126: real time    0.3129
    SETDIJ:  cpu time    0.0080: real time    0.0080
     EDDAV:  cpu time    2.3170: real time    2.3190
       DOS:  cpu time    0.0001: real time    0.0001
    CHARGE:  cpu time    0.0860: real time    0.0860
    MIXING:  cpu time    0.0168: real time    0.0168
    --------------------------------------------
      LOOP:  cpu time    2.7439: real time    2.7487

 eigenvalue-minimisations  :   688
 total energy-change (2. order) :-0.4997859E+01  (-0.1849352E+00)
 number of electron     165.0001537 magnetization       4.5692028
 augmentation part      105.9023355 magnetization       3.3639364

 Broyden mixing:
  rms(total) = 0.25166E+00    rms(broyden)= 0.25096E+00
  rms(prec ) = 0.26318E+00
  weight for this iteration     100.00

 eigenvalues of (default mixing * dielectric matrix)
  average eigenvalue GAMMA=   1.2498
  5.9602  2.1463  1.1803  1.1803  0.9965  0.7620  0.6488  0.6488  0.4495  0.4071
  0.4071  0.2106

 Free energy of the ion-electron system (eV)
  ---------------------------------------------------
  alpha Z        PSCENC =        20.39106223
  Ewald energy   TEWEN  =     28120.76466187
  -Hartree energ DENC   =    -47107.57523524
  -exchange      EXHF   =         0.00000000
  -V(xc)+E(xc)   XCENC  =       668.12210152
  PAW double counting   =     19381.68677296   -20987.37457815
  entropy T*S    EENTRO =        -0.00000000
  eigenvalues    EBANDS =      -994.03648773
  atomic energy  EATOM  =     20864.03376987
  Solvation  Ediel_sol  =         0.00000000
  ---------------------------------------------------
  free energy    TOTEN  =       -33.98793267 eV

  energy without entropy =      -33.98793267  energy(sigma->0) =      -33.98793267


--------------------------------------------------------------------------------------------------------




----------------------------------------- Iteration    1(  18)  ---------------------------------------


    POTLOK:  cpu time    0.3127: real time    0.3127
    SETDIJ:  cpu time    0.0080: real time    0.0080
     EDDAV:  cpu time    2.2131: real time    2.2148
       DOS:  cpu time    0.0002: real time    0.0002
    CHARGE:  cpu time    0.0873: real time    0.0873
    MIXING:  cpu time    0.0179: real time    0.0179
    --------------------------------------------
      LOOP:  cpu time    2.6424: real time    2.6470

 eigenvalue-minimisations  :   648
 total energy-change (2. order) :-0.7939803E+00  (-0.3210346E-01)
 number of electron     165.0001534 magnetization       4.0510771
 augmentation part      105.8911393 magnetization       2.9642983

 Broyden mixing:
  rms(total) = 0.17992E+00    rms(broyden)= 0.17987E+00
  rms(prec ) = 0.19194E+00
  weight for this iteration     100.00

 eigenvalues of (default mixing * dielectric matrix)
  average eigenvalue GAMMA=   1.2680
  6.4166  2.0773  1.1875  1.1875  0.9120  0.9120  0.7263  0.7263  0.5605  0.5605
  0.4182  0.4000  0.4000

 Free energy of the ion-electron system (eV)
  ---------------------------------------------------
  alpha Z        PSCENC =        20.39106223
  Ewald energy   TEWEN  =     28120.76466187
  -Hartree energ DENC   =    -47110.29297540
  -exchange      EXHF   =         0.00000000
  -V(xc)+E(xc)   XCENC  =       667.51120246
  PAW double counting   =     19387.48308053   -20993.97380849
  entropy T*S    EENTRO =         0.00000000
  eigenvalues    EBANDS =      -990.69890607
  atomic energy  EATOM  =     20864.03376987
  Solvation  Ediel_sol  =         0.00000000
  ---------------------------------------------------
  free energy    TOTEN  =       -34.78191299 eV

  energy without entropy =      -34.78191299  energy(sigma->0) =      -34.78191299


--------------------------------------------------------------------------------------------------------




----------------------------------------- Iteration    1(  19)  ---------------------------------------


    POTLOK:  cpu time    0.3120: real time    0.3120
    SETDIJ:  cpu time    0.0081: real time    0.0081
     EDDAV:  cpu time    2.0850: real time    2.0865
       DOS:  cpu time    0.0001: real time    0.0001
    CHARGE:  cpu time    0.0865: real time    0.0865
    MIXING:  cpu time    0.0191: real time    0.0191
    --------------------------------------------
      LOOP:  cpu time    2.5142: real time    2.5184

 eigenvalue-minimisations  :   600
 total energy-change (2. order) :-0.6831021E+00  (-0.1530629E-01)
 number of electron     165.0001536 magnetization       2.4433946
 augmentation part      105.8464097 magnetization       1.3905213

 Broyden mixing:
  rms(total) = 0.12898E+00    rms(broyden)= 0.12897E+00
  rms(prec ) = 0.13967E+00
  weight for this iteration     100.00

 eigenvalues of (default mixing * dielectric matrix)
  average eigenvalue GAMMA=   1.3771
  7.6241  2.0762  1.4185  1.4185  1.1921  1.1921  0.7493  0.7493  0.6397  0.5150
  0.5150  0.3974  0.3963  0.3963

 Free energy of the ion-electron system (eV)
  ---------------------------------------------------
  alpha Z        PSCENC =        20.39106223
  Ewald energy   TEWEN  =     28120.76466187
  -Hartree energ DENC   =    -47109.35762521
  -exchange      EXHF   =         0.00000000
  -V(xc)+E(xc)   XCENC  =       666.93559591
  PAW double counting   =     19382.01246955   -20989.38189828
  entropy T*S    EENTRO =         0.00000000
  eigenvalues    EBANDS =      -990.86305103
  atomic energy  EATOM  =     20864.03376987
  Solvation  Ediel_sol  =         0.00000000
  ---------------------------------------------------
  free energy    TOTEN  =       -35.46501509 eV

  energy without entropy =      -35.46501509  energy(sigma->0) =      -35.46501509


--------------------------------------------------------------------------------------------------------




----------------------------------------- Iteration    1(  20)  ---------------------------------------


    POTLOK:  cpu time    0.3122: real time    0.3125
    SETDIJ:  cpu time    0.0081: real time    0.0081
     EDDAV:  cpu time    2.3456: real time    2.3630
       DOS:  cpu time    0.0002: real time    0.0002
    CHARGE:  cpu time    0.0859: real time    0.0859
    MIXING:  cpu time    0.0203: real time    0.0203
    --------------------------------------------
      LOOP:  cpu time    2.7756: real time    2.7959

 eigenvalue-minimisations  :   688
 total energy-change (2. order) :-0.1509642E+01  (-0.2774378E-01)
 number of electron     165.0001533 magnetization       1.6607367
 augmentation part      105.8192873 magnetization       0.7051092

 Broyden mixing:
  rms(total) = 0.59866E-01    rms(broyden)= 0.59840E-01
  rms(prec ) = 0.64747E-01
  weight for this iteration     100.00

 eigenvalues of (default mixing * dielectric matrix)
  average eigenvalue GAMMA=   1.3777
  7.9314  2.0273  2.0273  1.1882  1.1882  1.0605  1.0605  0.7245  0.7245  0.5992
  0.4684  0.4684  0.4076  0.3944  0.3944

 Free energy of the ion-electron system (eV)
  ---------------------------------------------------
  alpha Z        PSCENC =        20.39106223
  Ewald energy   TEWEN  =     28120.76466187
  -Hartree energ DENC   =    -47103.33094145
  -exchange      EXHF   =         0.00000000
  -V(xc)+E(xc)   XCENC  =       665.46490263
  PAW double counting   =     19363.74791946   -20972.24693241
  entropy T*S    EENTRO =         0.00000000
  eigenvalues    EBANDS =      -995.79909891
  atomic energy  EATOM  =     20864.03376987
  Solvation  Ediel_sol  =         0.00000000
  ---------------------------------------------------
  free energy    TOTEN  =       -36.97465671 eV

  energy without entropy =      -36.97465671  energy(sigma->0) =      -36.97465671


--------------------------------------------------------------------------------------------------------




----------------------------------------- Iteration    1(  21)  ---------------------------------------


    POTLOK:  cpu time    0.3143: real time    0.3143
    SETDIJ:  cpu time    0.0081: real time    0.0081
     EDDAV:  cpu time    2.0638: real time    2.0703
       DOS:  cpu time    0.0002: real time    0.0002
    CHARGE:  cpu time    0.0874: real time    0.0874
    MIXING:  cpu time    0.0216: real time    0.0216
    --------------------------------------------
      LOOP:  cpu time    2.4986: real time    2.5075

 eigenvalue-minimisations  :   592
 total energy-change (2. order) :-0.7235259E+00  (-0.9861642E-02)
 number of electron     165.0001533 magnetization       1.4335163
 augmentation part      105.7984767 magnetization       0.4931116

 Broyden mixing:
  rms(total) = 0.41667E-01    rms(broyden)= 0.41653E-01
  rms(prec ) = 0.45362E-01
  weight for this iteration     100.00

 eigenvalues of (default mixing * dielectric matrix)
  average eigenvalue GAMMA=   1.4079
  8.4236  2.5059  1.5557  1.5557  1.1977  1.1977  1.1078  0.7640  0.7640  0.7054
  0.6013  0.4753  0.4753  0.4039  0.3968  0.3968

 Free energy of the ion-electron system (eV)
  ---------------------------------------------------
  alpha Z        PSCENC =        20.39106223
  Ewald energy   TEWEN  =     28120.76466187
  -Hartree energ DENC   =    -47098.21444682
  -exchange      EXHF   =         0.00000000
  -V(xc)+E(xc)   XCENC  =       664.73317126
  PAW double counting   =     19356.70900518   -20965.94520369
  entropy T*S    EENTRO =         0.00000000
  eigenvalues    EBANDS =     -1000.17020254
  atomic energy  EATOM  =     20864.03376987
  Solvation  Ediel_sol  =         0.00000000
  ---------------------------------------------------
  free energy    TOTEN  =       -37.69818263 eV

  energy without entropy =      -37.69818263  energy(sigma->0) =      -37.69818263


--------------------------------------------------------------------------------------------------------




----------------------------------------- Iteration    1(  22)  ---------------------------------------


    POTLOK:  cpu time    0.3299: real time    0.3303
    SETDIJ:  cpu time    0.0096: real time    0.0096
     EDDAV:  cpu time    2.0186: real time    2.0205
       DOS:  cpu time    0.0001: real time    0.0001
    CHARGE:  cpu time    0.0865: real time    0.0865
    MIXING:  cpu time    0.0248: real time    0.0248
    --------------------------------------------
      LOOP:  cpu time    2.4728: real time    2.4778

 eigenvalue-minimisations  :   572
 total energy-change (2. order) :-0.4453682E+00  (-0.4217326E-02)
 number of electron     165.0001534 magnetization       1.3806851
 augmentation part      105.8436391 magnetization       0.4546402

 Broyden mixing:
  rms(total) = 0.31049E-01    rms(broyden)= 0.31041E-01
  rms(prec ) = 0.33924E-01
  weight for this iteration     100.00

 eigenvalues of (default mixing * dielectric matrix)
  average eigenvalue GAMMA=   1.3840
  8.5087  2.6603  1.6369  1.4384  1.4384  1.1874  1.1874  0.8402  0.7184  0.7184
  0.6216  0.4752  0.4752  0.3945  0.3945  0.4327  0.3997

 Free energy of the ion-electron system (eV)
  ---------------------------------------------------
  alpha Z        PSCENC =        20.39106223
  Ewald energy   TEWEN  =     28120.76466187
  -Hartree energ DENC   =    -47092.96270990
  -exchange      EXHF   =         0.00000000
  -V(xc)+E(xc)   XCENC  =       664.20598864
  PAW double counting   =     19349.65711863   -20958.44424994
  entropy T*S    EENTRO =         0.00000000
  eigenvalues    EBANDS =     -1005.78919226
  atomic energy  EATOM  =     20864.03376987
  Solvation  Ediel_sol  =         0.00000000
  ---------------------------------------------------
  free energy    TOTEN  =       -38.14355086 eV

  energy without entropy =      -38.14355086  energy(sigma->0) =      -38.14355086


--------------------------------------------------------------------------------------------------------




----------------------------------------- Iteration    1(  23)  ---------------------------------------


    POTLOK:  cpu time    0.3142: real time    0.3146
    SETDIJ:  cpu time    0.0085: real time    0.0085
     EDDAV:  cpu time    2.0670: real time    2.0691
       DOS:  cpu time    0.0001: real time    0.0001
    CHARGE:  cpu time    0.0860: real time    0.0860
    MIXING:  cpu time    0.0248: real time    0.0248
    --------------------------------------------
      LOOP:  cpu time    2.5042: real time    2.5094

 eigenvalue-minimisations  :   592
 total energy-change (2. order) :-0.1863614E+00  (-0.1186096E-02)
 number of electron     165.0001534 magnetization       1.2342370
 augmentation part      105.8561066 magnetization       0.3076945

 Broyden mixing:
  rms(total) = 0.18704E-01    rms(broyden)= 0.18699E-01
  rms(prec ) = 0.21101E-01
  weight for this iteration     100.00

 eigenvalues of (default mixing * dielectric matrix)
  average eigenvalue GAMMA=   1.4258
  8.6112  2.8346  2.3997  1.6203  1.6203  1.1674  1.1674  0.8211  0.8211  0.7646
  0.6347  0.6347  0.4858  0.4858  0.3955  0.3955  0.4092  0.3945

 Free energy of the ion-electron system (eV)
  ---------------------------------------------------
  alpha Z        PSCENC =        20.39106223
  Ewald energy   TEWEN  =     28120.76466187
  -Hartree energ DENC   =    -47091.39597413
  -exchange      EXHF   =         0.00000000
  -V(xc)+E(xc)   XCENC  =       664.00982025
  PAW double counting   =     19350.58581102   -20959.23001334
  entropy T*S    EENTRO =         0.00000000
  eigenvalues    EBANDS =     -1007.48905007
  atomic energy  EATOM  =     20864.03376987
  Solvation  Ediel_sol  =         0.00000000
  ---------------------------------------------------
  free energy    TOTEN  =       -38.32991229 eV

  energy without entropy =      -38.32991229  energy(sigma->0) =      -38.32991229


--------------------------------------------------------------------------------------------------------




----------------------------------------- Iteration    1(  24)  ---------------------------------------


    POTLOK:  cpu time    0.3187: real time    0.3191
    SETDIJ:  cpu time    0.0084: real time    0.0084
     EDDAV:  cpu time    2.1988: real time    2.2000
       DOS:  cpu time    0.0001: real time    0.0001
    CHARGE:  cpu time    0.0878: real time    0.0878
    MIXING:  cpu time    0.0269: real time    0.0269
    --------------------------------------------
      LOOP:  cpu time    2.6440: real time    2.6485

 eigenvalue-minimisations  :   644
 total energy-change (2. order) :-0.3076718E+00  (-0.8544217E-03)
 number of electron     165.0001534 magnetization       1.0898140
 augmentation part      105.8333914 magnetization       0.1521126

 Broyden mixing:
  rms(total) = 0.15371E-01    rms(broyden)= 0.15368E-01
  rms(prec ) = 0.17341E-01
  weight for this iteration     100.00

 eigenvalues of (default mixing * dielectric matrix)
  average eigenvalue GAMMA=   1.4303
  8.9178  3.3663  1.9092  1.9092  1.2077  1.2077  1.2979  1.2979  0.7950  0.7536
  0.7536  0.6502  0.5492  0.4852  0.4852  0.3974  0.3974  0.3977  0.3977

 Free energy of the ion-electron system (eV)
  ---------------------------------------------------
  alpha Z        PSCENC =        20.39106223
  Ewald energy   TEWEN  =     28120.76466187
  -Hartree energ DENC   =    -47090.28700355
  -exchange      EXHF   =         0.00000000
  -V(xc)+E(xc)   XCENC  =       663.74295136
  PAW double counting   =     19357.38236349   -20966.21988192
  entropy T*S    EENTRO =         0.00000000
  eigenvalues    EBANDS =     -1008.44550748
  atomic energy  EATOM  =     20864.03376987
  Solvation  Ediel_sol  =         0.00000000
  ---------------------------------------------------
  free energy    TOTEN  =       -38.63758413 eV

  energy without entropy =      -38.63758413  energy(sigma->0) =      -38.63758413


--------------------------------------------------------------------------------------------------------




----------------------------------------- Iteration    1(  25)  ---------------------------------------


    POTLOK:  cpu time    0.3128: real time    0.3131
    SETDIJ:  cpu time    0.0083: real time    0.0083
     EDDAV:  cpu time    2.2524: real time    2.2588
       DOS:  cpu time    0.0001: real time    0.0001
    CHARGE:  cpu time    0.0867: real time    0.0868
    MIXING:  cpu time    0.0288: real time    0.0288
    --------------------------------------------
      LOOP:  cpu time    2.6926: real time    2.7021

 eigenvalue-minimisations  :   664
 total energy-change (2. order) :-0.1188565E+00  (-0.3926529E-03)
 number of electron     165.0001534 magnetization       1.0601739
 augmentation part      105.8431612 magnetization       0.1334480

 Broyden mixing:
  rms(total) = 0.98432E-02    rms(broyden)= 0.98410E-02
  rms(prec ) = 0.11427E-01
  weight for this iteration     100.00

 eigenvalues of (default mixing * dielectric matrix)
  average eigenvalue GAMMA=   1.4337
  8.9622  3.7761  2.0109  2.0109  1.4232  1.4232  1.1913  1.1913  0.7930  0.7930
  0.7625  0.6986  0.6095  0.4845  0.4845  0.4733  0.3954  0.3954  0.4037  0.3917

 Free energy of the ion-electron system (eV)
  ---------------------------------------------------
  alpha Z        PSCENC =        20.39106223
  Ewald energy   TEWEN  =     28120.76466187
  -Hartree energ DENC   =    -47087.79663278
  -exchange      EXHF   =         0.00000000
  -V(xc)+E(xc)   XCENC  =       663.59520559
  PAW double counting   =     19355.36715137   -20964.09871116
  entropy T*S    EENTRO =         0.00000000
  eigenvalues    EBANDS =     -1011.01294762
  atomic energy  EATOM  =     20864.03376987
  Solvation  Ediel_sol  =         0.00000000
  ---------------------------------------------------
  free energy    TOTEN  =       -38.75644062 eV

  energy without entropy =      -38.75644062  energy(sigma->0) =      -38.75644062


--------------------------------------------------------------------------------------------------------




----------------------------------------- Iteration    1(  26)  ---------------------------------------


    POTLOK:  cpu time    0.3122: real time    0.3125
    SETDIJ:  cpu time    0.0084: real time    0.0084
     EDDAV:  cpu time    2.1902: real time    2.1916
       DOS:  cpu time    0.0002: real time    0.0002
    CHARGE:  cpu time    0.0874: real time    0.0874
    MIXING:  cpu time    0.0300: real time    0.0300
    --------------------------------------------
      LOOP:  cpu time    2.6318: real time    2.6361

 eigenvalue-minimisations  :   640
 total energy-change (2. order) :-0.4465982E-01  (-0.1120163E-03)
 number of electron     165.0001534 magnetization       1.0581716
 augmentation part      105.8481410 magnetization       0.1318305

 Broyden mixing:
  rms(total) = 0.57542E-02    rms(broyden)= 0.57527E-02
  rms(prec ) = 0.70819E-02
  weight for this iteration     100.00

 eigenvalues of (default mixing * dielectric matrix)
  average eigenvalue GAMMA=   1.4265
  8.9377  4.0868  2.1004  2.1004  1.4043  1.4043  1.1939  1.1939  0.9191  0.9191
  0.7495  0.7495  0.6444  0.4871  0.4871  0.5053  0.4888  0.3966  0.3966  0.4005
  0.3915

 Free energy of the ion-electron system (eV)
  ---------------------------------------------------
  alpha Z        PSCENC =        20.39106223
  Ewald energy   TEWEN  =     28120.76466187
  -Hartree energ DENC   =    -47086.11096334
  -exchange      EXHF   =         0.00000000
  -V(xc)+E(xc)   XCENC  =       663.53548611
  PAW double counting   =     19355.01380013   -20963.70138693
  entropy T*S    EENTRO =         0.00000000
  eigenvalues    EBANDS =     -1012.72753037
  atomic energy  EATOM  =     20864.03376987
  Solvation  Ediel_sol  =         0.00000000
  ---------------------------------------------------
  free energy    TOTEN  =       -38.80110043 eV

  energy without entropy =      -38.80110043  energy(sigma->0) =      -38.80110043


--------------------------------------------------------------------------------------------------------




----------------------------------------- Iteration    1(  27)  ---------------------------------------


    POTLOK:  cpu time    0.3130: real time    0.3132
    SETDIJ:  cpu time    0.0082: real time    0.0084
     EDDAV:  cpu time    2.2121: real time    2.2187
       DOS:  cpu time    0.0001: real time    0.0001
    CHARGE:  cpu time    0.0879: real time    0.0879
    MIXING:  cpu time    0.0314: real time    0.0315
    --------------------------------------------
      LOOP:  cpu time    2.6560: real time    2.6656

 eigenvalue-minimisations  :   648
 total energy-change (2. order) :-0.2100153E-01  (-0.8847149E-04)
 number of electron     165.0001534 magnetization       1.0373166
 augmentation part      105.8445189 magnetization       0.1062726

 Broyden mixing:
  rms(total) = 0.34459E-02    rms(broyden)= 0.34444E-02
  rms(prec ) = 0.44743E-02
  weight for this iteration     100.00

 eigenvalues of (default mixing * dielectric matrix)
  average eigenvalue GAMMA=   1.4389
  8.9478  4.1674  2.3971  2.3971  1.3786  1.3786  1.1853  1.1853  1.2826  0.7943
  0.7943  0.7765  0.7765  0.6246  0.5684  0.4844  0.4844  0.3963  0.3963  0.4497
  0.3992  0.3915

 Free energy of the ion-electron system (eV)
  ---------------------------------------------------
  alpha Z        PSCENC =        20.39106223
  Ewald energy   TEWEN  =     28120.76466187
  -Hartree energ DENC   =    -47084.91940801
  -exchange      EXHF   =         0.00000000
  -V(xc)+E(xc)   XCENC  =       663.51461979
  PAW double counting   =     19356.75090790   -20965.48524989
  entropy T*S    EENTRO =         0.00000000
  eigenvalues    EBANDS =     -1013.87246572
  atomic energy  EATOM  =     20864.03376987
  Solvation  Ediel_sol  =         0.00000000
  ---------------------------------------------------
  free energy    TOTEN  =       -38.82210197 eV

  energy without entropy =      -38.82210197  energy(sigma->0) =      -38.82210197


--------------------------------------------------------------------------------------------------------




----------------------------------------- Iteration    1(  28)  ---------------------------------------


    POTLOK:  cpu time    0.3125: real time    0.3125
    SETDIJ:  cpu time    0.0084: real time    0.0084
     EDDAV:  cpu time    2.2760: real time    2.2777
       DOS:  cpu time    0.0001: real time    0.0001
    CHARGE:  cpu time    0.0873: real time    0.0873
    MIXING:  cpu time    0.0326: real time    0.0326
    --------------------------------------------
      LOOP:  cpu time    2.7203: real time    2.7246

 eigenvalue-minimisations  :   672
 total energy-change (2. order) :-0.5857227E-02  (-0.5406934E-04)
 number of electron     165.0001534 magnetization       1.0389986
 augmentation part      105.8462204 magnetization       0.1104631

 Broyden mixing:
  rms(total) = 0.21442E-02    rms(broyden)= 0.21434E-02
  rms(prec ) = 0.29435E-02
  weight for this iteration     100.00

 eigenvalues of (default mixing * dielectric matrix)
  average eigenvalue GAMMA=   1.4257
  8.8958  4.4300  2.3233  2.3233  1.7101  1.3777  1.3777  1.1900  1.1900  0.8723
  0.8723  0.7460  0.7460  0.6510  0.5700  0.4855  0.4855  0.5026  0.3965  0.3965
  0.4558  0.4012  0.3916

 Free energy of the ion-electron system (eV)
  ---------------------------------------------------
  alpha Z        PSCENC =        20.39106223
  Ewald energy   TEWEN  =     28120.76466187
  -Hartree energ DENC   =    -47083.90832225
  -exchange      EXHF   =         0.00000000
  -V(xc)+E(xc)   XCENC  =       663.50115173
  PAW double counting   =     19357.10557811   -20965.83435779
  entropy T*S    EENTRO =         0.00000000
  eigenvalues    EBANDS =     -1014.88150298
  atomic energy  EATOM  =     20864.03376987
  Solvation  Ediel_sol  =         0.00000000
  ---------------------------------------------------
  free energy    TOTEN  =       -38.82795919 eV

  energy without entropy =      -38.82795919  energy(sigma->0) =      -38.82795919


--------------------------------------------------------------------------------------------------------




----------------------------------------- Iteration    1(  29)  ---------------------------------------


    POTLOK:  cpu time    0.3123: real time    0.3126
    SETDIJ:  cpu time    0.0084: real time    0.0084
     EDDAV:  cpu time    2.0627: real time    2.0736
       DOS:  cpu time    0.0001: real time    0.0001
    CHARGE:  cpu time    0.0871: real time    0.0871
    MIXING:  cpu time    0.0338: real time    0.0340
    --------------------------------------------
      LOOP:  cpu time    2.5079: real time    2.5219

 eigenvalue-minimisations  :   592
 total energy-change (2. order) :-0.3377731E-02  (-0.1729160E-04)
 number of electron     165.0001534 magnetization       1.0234214
 augmentation part      105.8456097 magnetization       0.0925444

 Broyden mixing:
  rms(total) = 0.20023E-02    rms(broyden)= 0.20020E-02
  rms(prec ) = 0.25574E-02
  weight for this iteration     100.00

 eigenvalues of (default mixing * dielectric matrix)
  average eigenvalue GAMMA=   1.4383
  8.8892  4.7092  2.5140  2.1550  2.1550  1.3594  1.3594  1.1882  1.1882  1.1976
  0.7826  0.7826  0.7791  0.7791  0.6458  0.4846  0.4846  0.5221  0.5221  0.3965
  0.3965  0.4362  0.4029  0.3906

 Free energy of the ion-electron system (eV)
  ---------------------------------------------------
  alpha Z        PSCENC =        20.39106223
  Ewald energy   TEWEN  =     28120.76466187
  -Hartree energ DENC   =    -47083.22757996
  -exchange      EXHF   =         0.00000000
  -V(xc)+E(xc)   XCENC  =       663.49463368
  PAW double counting   =     19357.67288160   -20966.42347019
  entropy T*S    EENTRO =         0.00000000
  eigenvalues    EBANDS =     -1015.53729604
  atomic energy  EATOM  =     20864.03376987
  Solvation  Ediel_sol  =         0.00000000
  ---------------------------------------------------
  free energy    TOTEN  =       -38.83133692 eV

  energy without entropy =      -38.83133692  energy(sigma->0) =      -38.83133692


--------------------------------------------------------------------------------------------------------




----------------------------------------- Iteration    1(  30)  ---------------------------------------


    POTLOK:  cpu time    0.3122: real time    0.3122
    SETDIJ:  cpu time    0.0093: real time    0.0093
     EDDAV:  cpu time    2.2747: real time    2.2764
       DOS:  cpu time    0.0001: real time    0.0001
    CHARGE:  cpu time    0.0879: real time    0.0879
    MIXING:  cpu time    0.0354: real time    0.0354
    --------------------------------------------
      LOOP:  cpu time    2.7229: real time    2.7274

 eigenvalue-minimisations  :   672
 total energy-change (2. order) :-0.2503637E-02  (-0.1748567E-04)
 number of electron     165.0001534 magnetization       1.0137201
 augmentation part      105.8472694 magnetization       0.0827330

 Broyden mixing:
  rms(total) = 0.15254E-02    rms(broyden)= 0.15252E-02
  rms(prec ) = 0.18618E-02
  weight for this iteration     100.00

 eigenvalues of (default mixing * dielectric matrix)
  average eigenvalue GAMMA=   1.4485
  8.8874  4.9429  2.9673  2.1100  2.1100  1.5500  1.3679  1.3679  1.1867  1.1867
  0.8799  0.8799  0.7501  0.7501  0.6334  0.6334  0.4855  0.4855  0.5098  0.5098
  0.3965  0.3965  0.4305  0.4036  0.3902

 Free energy of the ion-electron system (eV)
  ---------------------------------------------------
  alpha Z        PSCENC =        20.39106223
  Ewald energy   TEWEN  =     28120.76466187
  -Hartree energ DENC   =    -47082.38132666
  -exchange      EXHF   =         0.00000000
  -V(xc)+E(xc)   XCENC  =       663.48438086
  PAW double counting   =     19357.66981834   -20966.42775427
  entropy T*S    EENTRO =         0.00000000
  eigenvalues    EBANDS =     -1016.36845280
  atomic energy  EATOM  =     20864.03376987
  Solvation  Ediel_sol  =         0.00000000
  ---------------------------------------------------
  free energy    TOTEN  =       -38.83384056 eV

  energy without entropy =      -38.83384056  energy(sigma->0) =      -38.83384056


--------------------------------------------------------------------------------------------------------




----------------------------------------- Iteration    1(  31)  ---------------------------------------


    POTLOK:  cpu time    0.3106: real time    0.3107
    SETDIJ:  cpu time    0.0079: real time    0.0079
     EDDAV:  cpu time    2.2730: real time    2.2808
       DOS:  cpu time    0.0001: real time    0.0001
    CHARGE:  cpu time    0.0863: real time    0.0864
    MIXING:  cpu time    0.0368: real time    0.0368
    --------------------------------------------
      LOOP:  cpu time    2.7182: real time    2.7287

 eigenvalue-minimisations  :   672
 total energy-change (2. order) :-0.1791949E-02  (-0.6914809E-05)
 number of electron     165.0001534 magnetization       1.0075280
 augmentation part      105.8481345 magnetization       0.0776142

 Broyden mixing:
  rms(total) = 0.12085E-02    rms(broyden)= 0.12084E-02
  rms(prec ) = 0.14389E-02
  weight for this iteration     100.00

 eigenvalues of (default mixing * dielectric matrix)
  average eigenvalue GAMMA=   1.4586
  8.8826  5.1587  3.4140  2.1795  2.1795  1.6077  1.3505  1.3505  1.1919  1.1919
  0.9808  0.9808  0.7734  0.7734  0.6678  0.6678  0.4850  0.4850  0.5473  0.5473
  0.3965  0.3965  0.4896  0.3906  0.4033  0.4310

 Free energy of the ion-electron system (eV)
  ---------------------------------------------------
  alpha Z        PSCENC =        20.39106223
  Ewald energy   TEWEN  =     28120.76466187
  -Hartree energ DENC   =    -47081.93085916
  -exchange      EXHF   =         0.00000000
  -V(xc)+E(xc)   XCENC  =       663.47945993
  PAW double counting   =     19357.57357793   -20966.33473306
  entropy T*S    EENTRO =         0.00000000
  eigenvalues    EBANDS =     -1016.81257212
  atomic energy  EATOM  =     20864.03376987
  Solvation  Ediel_sol  =         0.00000000
  ---------------------------------------------------
  free energy    TOTEN  =       -38.83563251 eV

  energy without entropy =      -38.83563251  energy(sigma->0) =      -38.83563251


--------------------------------------------------------------------------------------------------------




----------------------------------------- Iteration    1(  32)  ---------------------------------------


    POTLOK:  cpu time    0.3111: real time    0.3111
    SETDIJ:  cpu time    0.0080: real time    0.0080
     EDDAV:  cpu time    2.2976: real time    2.2994
       DOS:  cpu time    0.0001: real time    0.0001
    CHARGE:  cpu time    0.0862: real time    0.0862
    MIXING:  cpu time    0.0385: real time    0.0385
    --------------------------------------------
      LOOP:  cpu time    2.7448: real time    2.7493

 eigenvalue-minimisations  :   680
 total energy-change (2. order) :-0.9049726E-03  (-0.2714156E-05)
[...]
    104       0.5017      0.00000
    105       0.5181      0.00000
    106       0.5489      0.00000
    107       0.5734      0.00000
    108       0.6908      0.00000
    109       0.7407      0.00000
    110       0.7738      0.00000
    111       0.8014      0.00000
    112       0.8427      0.00000
    113       0.8508      0.00000
    114       0.8576      0.00000
    115       0.8911      0.00000
    116       0.9024      0.00000
    117       0.9349      0.00000
    118       0.9565      0.00000
    119       0.9835      0.00000
    120       0.9984      0.00000
    121       1.0621      0.00000
    122       1.1062      0.00000
    123       1.1575      0.00000
    124       1.1942      0.00000


--------------------------------------------------------------------------------------------------------


 soft charge-density along one line, spin component           1
         0         1         2         3         4         5         6         7         8         9
 total charge-density along one line
 
 soft charge-density along one line, spin component           2
         0         1         2         3         4         5         6         7         8         9
 total charge-density along one line
 
 pseudopotential strength for first ion, spin component:           1
-10.637   0.020   0.012   0.006   0.005   1.106  -0.015  -0.008
  0.020 -10.660  -0.002  -0.003  -0.016  -0.015   1.125   0.002
  0.012  -0.002 -10.665   0.004  -0.005  -0.008   0.002   1.129
  0.006  -0.003   0.004 -10.652   0.013  -0.004   0.001  -0.003
  0.005  -0.016  -0.005   0.013 -10.640  -0.004   0.011   0.004
  1.106  -0.015  -0.008  -0.004  -0.004   6.232   0.010   0.003
 -0.015   1.125   0.002   0.001   0.011   0.010   6.220  -0.002
 -0.008   0.002   1.129  -0.003   0.004   0.003  -0.002   6.216
 -0.004   0.001  -0.003   1.119  -0.010   0.002   0.001   0.002
 -0.004   0.011   0.004  -0.010   1.108   0.002  -0.008  -0.002
  0.000  -0.000   0.005  -0.004  -0.001   0.004  -0.000  -0.002
 -0.000   0.000   0.009  -0.006  -0.002   0.007  -0.001  -0.003
 -0.013   0.003   0.007  -0.000   0.013   0.009  -0.000  -0.004
 -0.000  -0.013   0.004  -0.014   0.000   0.000   0.009  -0.003
 -0.014  -0.000   0.007   0.004  -0.013   0.008   0.000  -0.005
 -0.014   0.002   0.007  -0.000   0.013   0.009   0.001  -0.004
 -0.000  -0.014   0.004  -0.015   0.001   0.000   0.009  -0.002
 -0.014  -0.000   0.008   0.003  -0.015   0.008   0.000  -0.005
 pseudopotential strength for first ion, spin component:           2
-10.628   0.015   0.007   0.008   0.002   1.099  -0.011  -0.004
  0.015 -10.644   0.009  -0.005  -0.012  -0.011   1.111  -0.006
  0.007   0.009 -10.648   0.002  -0.001  -0.004  -0.006   1.114
  0.008  -0.005   0.002 -10.644   0.012  -0.006   0.003  -0.002
  0.002  -0.012  -0.001   0.012 -10.631  -0.002   0.009   0.001
  1.099  -0.011  -0.004  -0.006  -0.002   6.235   0.008   0.001
 -0.011   1.111  -0.006   0.003   0.009   0.008   6.228   0.004
 -0.004  -0.006   1.114  -0.002   0.001   0.001   0.004   6.226
 -0.006   0.003  -0.002   1.111  -0.009   0.004  -0.001   0.001
 -0.002   0.009   0.001  -0.009   1.101   0.001  -0.007  -0.000
  0.000  -0.002   0.003  -0.003  -0.000   0.003   0.001   0.000
  0.000  -0.003   0.004  -0.004  -0.000   0.006   0.002   0.000
 -0.014   0.005   0.009  -0.000   0.014   0.010  -0.002  -0.006
 -0.000  -0.013   0.005  -0.014  -0.000   0.000   0.009  -0.003
 -0.014  -0.000   0.008   0.004  -0.014   0.010   0.000  -0.005
 -0.015   0.005   0.010  -0.000   0.015   0.011  -0.001  -0.007
 -0.000  -0.014   0.006  -0.015  -0.000   0.000   0.009  -0.003
 -0.016  -0.000   0.008   0.005  -0.015   0.011   0.000  -0.005
 total augmentation occupancy for first ion, spin component:           1
  1.947   0.008  -0.001  -0.002   0.004  -0.021  -0.006  -0.005   0.004  -0.003  -0.005   0.002   0.042  -0.007   0.033  -0.019
  0.008   1.943  -0.005   0.007  -0.009  -0.006  -0.014   0.002   0.000   0.002   0.010  -0.009  -0.017   0.056   0.004   0.008
 -0.001  -0.005   1.938  -0.006  -0.001  -0.005   0.002  -0.012   0.003   0.001  -0.015  -0.006  -0.020  -0.023  -0.027   0.011
 -0.002   0.007  -0.006   1.945   0.002   0.004   0.000   0.003  -0.012  -0.001  -0.002  -0.000  -0.002   0.033  -0.019  -0.000
  0.004  -0.009  -0.001   0.002   1.952  -0.003   0.002   0.001  -0.001  -0.016   0.006  -0.000  -0.054   0.005   0.041   0.022
 -0.021  -0.006  -0.005   0.004  -0.003   0.007  -0.000  -0.002   0.000  -0.000   0.021  -0.005   0.014   0.002   0.013  -0.001
 -0.006  -0.014   0.002   0.000   0.002  -0.000   0.010  -0.001   0.003  -0.001   0.012  -0.000   0.002   0.022  -0.001  -0.000
 -0.005   0.002  -0.012   0.003   0.001  -0.002  -0.001   0.009  -0.002  -0.000   0.021   0.000  -0.007  -0.013  -0.008   0.000
  0.004   0.000   0.003  -0.012  -0.001   0.000   0.003  -0.002   0.008  -0.001  -0.012   0.002   0.001   0.020  -0.003   0.000
 -0.003   0.002   0.001  -0.001  -0.016  -0.000  -0.001  -0.000  -0.001   0.011  -0.002   0.000  -0.021  -0.005   0.020   0.001
 -0.005   0.010  -0.015  -0.002   0.006   0.021   0.012   0.021  -0.012  -0.002   1.664  -0.107   0.186  -0.064   0.172  -0.024
  0.002  -0.009  -0.006  -0.000  -0.000  -0.005  -0.000   0.000   0.002   0.000  -0.107   0.012  -0.023   0.006  -0.022   0.002
  0.042  -0.017  -0.020  -0.002  -0.054   0.014   0.002  -0.007   0.001  -0.021   0.186  -0.023   0.110   0.020   0.004  -0.008
 -0.007   0.056  -0.023   0.033   0.005   0.002   0.022  -0.013   0.020  -0.005  -0.064   0.006   0.020   0.130  -0.007  -0.000
  0.033   0.004  -0.027  -0.019   0.041   0.013  -0.001  -0.008  -0.003   0.020   0.172  -0.022   0.004  -0.007   0.105  -0.002
 -0.019   0.008   0.011  -0.000   0.022  -0.001  -0.000   0.000   0.000   0.001  -0.024   0.002  -0.008  -0.000  -0.002   0.001
 -0.000  -0.023   0.010  -0.020   0.000  -0.000  -0.001   0.001  -0.001   0.000   0.008  -0.001  -0.000  -0.008   0.001  -0.000
 -0.020  -0.000   0.010   0.008  -0.019  -0.001  -0.000   0.000   0.000  -0.001  -0.023   0.002  -0.002   0.001  -0.008   0.000
 total augmentation occupancy for first ion, spin component:           2
  0.002  -0.003  -0.004   0.000  -0.001   0.001   0.001   0.001  -0.000   0.000   0.008   0.002  -0.005  -0.002  -0.004  -0.000
 -0.003   0.005   0.005  -0.001   0.003   0.001  -0.000  -0.002   0.001  -0.001  -0.013  -0.003   0.007   0.001   0.002   0.000
 -0.004   0.005   0.005  -0.001   0.003   0.001  -0.002  -0.001   0.000  -0.000  -0.015  -0.003   0.010   0.002   0.002   0.001
  0.000  -0.001  -0.001  -0.000  -0.000  -0.000   0.001   0.000   0.001   0.000   0.003   0.000  -0.001  -0.001  -0.001  -0.000
 -0.001   0.003   0.003  -0.000   0.002   0.000  -0.001  -0.000   0.000   0.001  -0.007  -0.001   0.006   0.001   0.000   0.001
  0.001   0.001   0.001  -0.000   0.000   0.000  -0.000  -0.000   0.000  -0.000  -0.002  -0.000   0.001   0.001   0.000   0.000
  0.001  -0.000  -0.002   0.001  -0.001  -0.000   0.000   0.000  -0.000   0.000   0.004   0.000  -0.002  -0.001  -0.000  -0.000
  0.001  -0.002  -0.001   0.000  -0.000  -0.000   0.000   0.000  -0.000   0.000   0.003   0.000  -0.002  -0.001  -0.001  -0.000
 -0.000   0.001   0.000   0.001   0.000   0.000  -0.000  -0.000  -0.000  -0.000  -0.000  -0.000   0.000   0.000  -0.000  -0.000
  0.000  -0.001  -0.000   0.000   0.001  -0.000   0.000   0.000  -0.000  -0.000   0.001   0.000  -0.001  -0.000  -0.000  -0.000
  0.008  -0.013  -0.015   0.003  -0.007  -0.002   0.004   0.003  -0.000   0.001   0.039   0.002  -0.025  -0.011  -0.005  -0.000
  0.002  -0.003  -0.003   0.000  -0.001  -0.000   0.000   0.000  -0.000   0.000   0.002   0.000  -0.001  -0.000  -0.000  -0.000
 -0.005   0.007   0.010  -0.001   0.006   0.001  -0.002  -0.002   0.000  -0.001  -0.025  -0.001   0.010   0.005   0.002   0.000
 -0.002   0.001   0.002  -0.001   0.001   0.001  -0.001  -0.001   0.000  -0.000  -0.011  -0.000   0.005   0.003   0.001   0.000
 -0.004   0.002   0.002  -0.001   0.000   0.000  -0.000  -0.001  -0.000  -0.000  -0.005  -0.000   0.002   0.001   0.001   0.000
 -0.000   0.000   0.001  -0.000   0.001   0.000  -0.000  -0.000  -0.000  -0.000  -0.000  -0.000   0.000   0.000   0.000   0.000
  0.000  -0.000  -0.000  -0.000  -0.000  -0.000   0.000   0.000  -0.000   0.000   0.000   0.000  -0.000  -0.000  -0.000  -0.000
 -0.001   0.000   0.000  -0.000  -0.000   0.000  -0.000  -0.000   0.000  -0.000  -0.000  -0.000   0.000   0.000   0.000   0.000


------------------------ aborting loop because EDIFF is reached ----------------------------------------


 


 total charge     
 
# of ion     s       p       d       tot
----------------------------------------
  1        0.466   0.182   9.260   9.909
  2        0.453   0.316   9.205   9.974
  3        0.481   0.227   9.217   9.926
  4        0.465   0.180   9.260   9.906
  5        0.482   0.231   9.216   9.930
  6        0.468   0.184   9.260   9.912
  7        0.444   0.162   9.288   9.895
  8        0.467   0.183   9.260   9.910
  9        0.420   0.324   9.227   9.971
 10        0.421   0.325   9.226   9.972
 11        0.439   0.190   9.271   9.900
 12        0.441   0.191   9.271   9.902
 13        0.454   0.319   9.205   9.977
 14        0.479   0.145   9.276   9.899
 15        0.479   0.144   9.276   9.899
------------------------------------------------
tot        6.859   3.304 138.717 148.880
 


 magnetization (x)
 
# of ion     s       p       d       tot
----------------------------------------
  1        0.016   0.009   0.013   0.038
  2        0.035   0.004   0.014   0.053
  3       -0.000  -0.000   0.016   0.015
  4        0.016   0.009   0.013   0.038
  5       -0.001  -0.000   0.016   0.015
  6        0.016   0.009   0.013   0.039
  7        0.004  -0.000   0.005   0.009
  8        0.017   0.009   0.013   0.039
  9        0.003   0.014   0.004   0.021
 10        0.003   0.014   0.004   0.021
 11        0.010   0.023   0.016   0.049
 12        0.010   0.024   0.016   0.050
 13        0.034   0.004   0.014   0.053
 14       -0.000  -0.000  -0.002  -0.003
 15       -0.000  -0.001  -0.003  -0.003
------------------------------------------------
tot        0.162   0.118   0.152   0.433
 
    CHARGE:  cpu time    0.0852: real time    0.0852
    FORLOC:  cpu time    0.0176: real time    0.0176
    FORNL :  cpu time    1.2752: real time    1.2807
    STRESS:  cpu time    1.0842: real time    1.0850
    FORCOR:  cpu time    0.3191: real time    0.3192
    FORHAR:  cpu time    0.0469: real time    0.0470
    MIXING:  cpu time    0.0689: real time    0.0689
    OFIELD:  cpu time    0.0001: real time    0.0001

  FORCE on cell =-STRESS in cart. coord.  units (eV):
  Direction    XX          YY          ZZ          XY          YZ          ZX
  --------------------------------------------------------------------------------------
  Alpha Z    20.39106    20.39106    20.39106
  Ewald    8599.51913  6963.85065 12557.38068  1259.26777   972.67432 -3561.57729
  Hartree 15003.16246 13503.97011 18574.05015  1096.55454   850.18836 -3173.98654
  E(xc)    -962.68098  -962.91220  -961.98351     0.32259     0.23844    -0.71152
  Local  -25069.06750-21935.14584-32593.59096 -2353.99532 -1821.46296  6731.72976
  n-local  -357.80094  -358.51935  -355.68485     0.62794     0.60969    -2.06714
  augment  1408.86766  1409.81245  1405.72406    -1.13866    -0.90867     2.94634
  Kinetic  1353.47906  1354.64167  1349.74032    -1.73309    -1.23954     3.70910
  Fock        0.00000     0.00000     0.00000     0.00000     0.00000     0.00000
  -------------------------------------------------------------------------------------
  Total      -4.13004    -3.91146    -3.97306    -0.09423     0.09964     0.04271
  in kB      -0.81999    -0.77660    -0.78882    -0.01871     0.01978     0.00848
  external pressure =       -0.80 kB  Pullay stress =        0.00 kB


 VOLUME and BASIS-vectors are now :
 -----------------------------------------------------------------------------
  energy-cutoff  :      295.45
  volume of cell :     8069.65
      direct lattice vectors                 reciprocal lattice vectors
    20.057877000  0.000000000  0.000000000     0.049855725  0.000000000  0.000000000
     0.000000000 20.057877000  0.000000000     0.000000000  0.049855725  0.000000000
     0.000000000  0.000000000 20.057877000     0.000000000  0.000000000  0.049855725

  length of vectors
    20.057877000 20.057877000 20.057877000     0.049855725  0.049855725  0.049855725


 FORCES acting on ions
    electron-ion (+dipol)            ewald-force                    non-local-force                 convergence-correction
 -----------------------------------------------------------------------------------------------
   0.112E+04 0.888E+03 -.411E+03   -.111E+04 -.882E+03 0.408E+03   -.515E+01 -.584E+01 0.245E+01   0.113E-04 -.257E-04 0.236E-04
   0.447E+03 -.646E+03 0.903E+03   -.448E+03 0.646E+03 -.902E+03   0.488E+00 0.108E+00 -.127E+01   0.268E-04 -.550E-04 0.370E-04
   -.139E+03 0.589E+03 -.130E+04   0.141E+03 -.588E+03 0.129E+04   -.215E+01 -.354E+00 0.472E+01   -.557E-04 0.290E-04 0.306E-04
   -.108E+04 -.926E+03 0.439E+03   0.107E+04 0.921E+03 -.438E+03   0.673E+01 0.440E+01 -.144E+01   0.101E-04 -.213E-04 0.487E-05
   -.120E+04 0.638E+03 0.439E+03   0.120E+04 -.638E+03 -.435E+03   0.301E+01 -.537E+00 -.401E+01   0.155E-05 0.140E-04 -.851E-04
   0.171E+03 0.937E+03 0.114E+04   -.170E+03 -.931E+03 -.114E+04   -.315E+00 -.602E+01 -.527E+01   0.438E-05 -.135E-04 0.217E-04
   -.103E+04 0.938E+03 -.656E+03   0.102E+04 -.931E+03 0.650E+03   0.838E+01 -.773E+01 0.559E+01   0.300E-04 -.410E-04 0.624E-04
   -.124E+03 -.975E+03 -.112E+04   0.122E+03 0.971E+03 0.111E+04   0.182E+01 0.461E+01 0.636E+01   0.114E-04 -.218E-04 0.842E-05
   -.986E+03 -.382E+03 -.593E+03   0.985E+03 0.381E+03 0.592E+03   0.179E+01 0.586E+00 0.104E+01   -.153E-04 0.874E-04 0.671E-05
   0.781E+02 0.121E+04 0.758E+01   -.781E+02 -.121E+04 -.755E+01   -.471E-01 -.217E+01 -.252E-01   -.840E-04 -.152E-04 -.512E-04
   -.740E+01 -.151E+04 0.423E+02   0.101E+02 0.150E+04 -.404E+02   -.267E+01 0.101E+02 -.192E+01   0.169E-04 0.278E-04 0.228E-04
   0.125E+04 0.370E+03 0.757E+03   -.124E+04 -.371E+03 -.751E+03   -.896E+01 0.645E+00 -.554E+01   -.818E-05 -.298E-04 -.221E-04
   0.985E+03 -.670E+03 0.186E+02   -.984E+03 0.670E+03 -.196E+02   -.766E+00 0.856E-01 0.102E+01   0.578E-04 -.586E-04 0.396E-04
   -.485E+03 -.188E+03 0.136E+04   0.480E+03 0.188E+03 -.135E+04   0.440E+01 0.525E+00 -.935E+01   -.310E-05 -.282E-04 0.702E-04
   0.993E+03 -.272E+03 -.103E+04   -.987E+03 0.271E+03 0.102E+04   -.628E+01 0.113E+01 0.806E+01   0.531E-04 -.330E-04 -.548E-05
 -----------------------------------------------------------------------------------------------
   -.416E+00 0.407E+00 -.460E+00   0.114E-12 0.568E-12 -.227E-12   0.279E+00 -.473E+00 0.430E+00   0.569E-04 -.185E-03 0.164E-03
 
 
 POSITION                                       TOTAL-FORCE (eV/Angst)
 -----------------------------------------------------------------------------------
      7.72727      8.62068     11.20185        -0.007915      0.000118     -0.002549
      9.86840     10.72963      8.48324         0.001475     -0.003968     -0.005540
      9.85643      9.26213     12.35327        -0.006197      0.001482     -0.006430
     12.10028     11.64913      8.70070         0.013174     -0.014826      0.004839
     11.99567      9.16025      8.86416        -0.000154     -0.006175      0.009967
      9.98791      8.51373      7.52935         0.017374     -0.008801      0.011940
     11.89152      8.33597     11.20759        -0.013970      0.011697      0.006297
      9.83603     11.75332     12.39041        -0.000802      0.004762     -0.004712
     11.28590     10.56842     10.78466        -0.000258     -0.011548      0.001603
      9.87974      8.47929      9.99425         0.009643      0.000283      0.009693
     10.27693     12.58122     10.09497         0.004382      0.007183     -0.009445
      7.96294      9.13750      8.79861        -0.001049      0.001746     -0.007781
      8.60460     10.78413     10.55314        -0.002566      0.006762     -0.004884
     11.42299     10.33106      6.74616         0.000515     -0.005005      0.004540
      7.73748     10.52759     12.73172        -0.013651      0.016288     -0.007536
 -----------------------------------------------------------------------------------
    total drift:                               -0.136601     -0.065700     -0.029446


--------------------------------------------------------------------------------------------------------



  FREE ENERGIE OF THE ION-ELECTRON SYSTEM (eV)
  ---------------------------------------------------
  free  energy   TOTEN  =       -38.83722699 eV

  energy  without entropy=      -38.83722699  energy(sigma->0) =      -38.83722699
 


--------------------------------------------------------------------------------------------------------


    POTLOK:  cpu time    0.3283: real time    0.3289


--------------------------------------------------------------------------------------------------------




--------------------------------------------------------------------------------------------------------


  
 reached required accuracy - stopping structural energy minimisation
     LOOP+:  cpu time  113.0300: real time  113.3907
    4ORBIT:  cpu time    0.0000: real time    0.0000
 


 total charge     
 
# of ion     s       p       d       tot
----------------------------------------
  1        0.466   0.182   9.260   9.909
  2        0.453   0.316   9.205   9.974
  3        0.481   0.227   9.217   9.926
  4        0.465   0.180   9.260   9.906
  5        0.482   0.231   9.216   9.930
  6        0.468   0.184   9.260   9.912
  7        0.444   0.162   9.288   9.895
  8        0.467   0.183   9.260   9.910
  9        0.420   0.324   9.227   9.971
 10        0.421   0.325   9.226   9.972
 11        0.439   0.190   9.271   9.900
 12        0.441   0.191   9.271   9.902
 13        0.454   0.319   9.205   9.977
 14        0.479   0.145   9.276   9.899
 15        0.479   0.144   9.276   9.899
------------------------------------------------
tot        6.859   3.304 138.717 148.880
 


 magnetization (x)
 
# of ion     s       p       d       tot
----------------------------------------
  1        0.016   0.009   0.013   0.038
  2        0.035   0.004   0.014   0.053
  3       -0.000  -0.000   0.016   0.015
  4        0.016   0.009   0.013   0.038
  5       -0.001  -0.000   0.016   0.015
  6        0.016   0.009   0.013   0.039
  7        0.004  -0.000   0.005   0.009
  8        0.017   0.009   0.013   0.039
  9        0.003   0.014   0.004   0.021
 10        0.003   0.014   0.004   0.021
 11        0.010   0.023   0.016   0.049
 12        0.010   0.024   0.016   0.050
 13        0.034   0.004   0.014   0.053
 14       -0.000  -0.000  -0.002  -0.003
 15       -0.000  -0.001  -0.003  -0.003
------------------------------------------------
tot        0.162   0.118   0.152   0.433
 

 total amount of memory used by VASP on root node    71924. kBytes
========================================================================

   base      :      30000. kBytes
   nonl-proj :       2984. kBytes
   fftplans  :       8861. kBytes
   grid      :      22296. kBytes
   one-center:         46. kBytes
   wavefun   :       7737. kBytes
 
  
  
 General timing and accounting informations for this job:
 ========================================================
  
                  Total CPU time used (sec):      115.644
                            User time (sec):      112.464
                          System time (sec):        3.180
                         Elapsed time (sec):      116.551
  
                   Maximum memory used (kb):      138116.
                   Average memory used (kb):           0.
  
                          Minor page faults:       321846
                          Major page faults:            0
                 Voluntary context switches:         1155
