 vasp.5.4.1 05Feb16 (build Apr 11 2020 03:28:46) gamma-only                     
  
 executed on           IFC91_ompi date 2022.06.04  04:28:15
 running on   24 total cores
 distrk:  each k-point on   24 cores,    1 groups
 distr:  one band on NCORES_PER_BAND=   6 cores,    4 groups


--------------------------------------------------------------------------------------------------------


 INCAR:
 POTCAR:    PAW_PBE Cu 22Jun2005                  
 POTCAR:    PAW_PBE Cu 22Jun2005                  
   VRHFIN =Cu: d10 p1                                                           
   LEXCH  = PE                                                                  
   EATOM  =  1390.9808 eV,  102.2342 Ry                                         
                                                                                
   TITEL  = PAW_PBE Cu 22Jun2005                                                
   LULTRA =        F    use ultrasoft PP ?                                      
   IUNSCR =        1    unscreen: 0-lin 1-nonlin 2-no                           
   RPACOR =    2.000    partial core radius                                     
   POMASS =   63.546; ZVAL   =   11.000    mass and valenz                      
   RCORE  =    2.300    outmost cutoff radius                                   
   RWIGS  =    2.200; RWIGS  =    1.164    wigner-seitz radius (au A)           
   ENMAX  =  295.446; ENMIN  =  221.585 eV                                      
   ICORE  =        3    local potential                                         
   LCOR   =        T    correct aug charges                                     
   LPAW   =        T    paw PP                                                  
   EAUG   =  586.980                                                            
   DEXC   =    0.000                                                            
   RMAX   =    2.344    core radius for proj-oper                               
   RAUG   =    1.300    factor for augmentation sphere                          
   RDEP   =    2.302    radius for radial grids                                 
   RDEPT  =    1.771    core radius for aug-charge                              
                                                                                
   Atomic configuration                                                         
    9 entries                                                                   
     n  l   j            E        occ.                                          
     1  0  0.50     -8850.2468   2.0000                                         
     2  0  0.50     -1062.3498   2.0000                                         
     2  1  1.50      -916.8226   6.0000                                         
     3  0  0.50      -114.6929   2.0000                                         
     3  1  1.50       -72.1325   6.0000                                         
     3  2  2.50        -5.0394  10.0000                                         
     4  0  0.50        -4.6097   1.0000                                         
     4  1  0.50        -4.0817   0.0000                                         
     4  3  2.50        -1.3606   0.0000                                         
   Description                                                                  
     l       E           TYP  RCUT    TYP  RCUT                                 
     2     -5.0393973     23  2.200                                             
     2     10.8846608     23  2.200                                             
     0     -4.6097109     23  2.200                                             
     0      8.2520465     23  2.200                                             
     1     -2.7211652     23  2.200                                             
     1     21.7055443     23  2.200                                             
     3      2.7211652     23  2.300                                             
  local pseudopotential read in
  partial core-charges read in
  partial kinetic energy density read in
  atomic valenz-charges read in
  non local Contribution for L=           2  read in
    real space projection operators read in
  non local Contribution for L=           2  read in
    real space projection operators read in
  non local Contribution for L=           0  read in
    real space projection operators read in
  non local Contribution for L=           0  read in
    real space projection operators read in
  non local Contribution for L=           1  read in
    real space projection operators read in
  non local Contribution for L=           1  read in
    real space projection operators read in
    PAW grid and wavefunctions read in
 
   number of l-projection  operators is LMAX  =           6
   number of lm-projection operators is LMMAX =          18
 
  PAW_PBE Cu 22Jun2005                  :
 energy of atom  1       EATOM=-1390.9808
 kinetic energy error for atom=    0.0452 (will be added to EATOM!!)
 
 
 POSCAR: Unknown Structure <s> Cu </s>           
  positions in direct lattice
  velocities in cartesian coordinates
 exchange correlation table for  LEXCH =        8
   RHO(1)=    0.500       N(1)  =     2000
   RHO(2)=  100.500       N(2)  =     4000
 


--------------------------------------------------------------------------------------------------------


 ion  position               nearest neighbor table
   1  0.354  0.368  0.271-   5 2.44  12 2.46  10 2.46   4 2.46  11 2.47
   2  0.307  0.216  0.263-   3 2.36   5 2.37  13 2.46   6 2.47   9 2.52
   3  0.256  0.231  0.321-   2 2.36   7 2.39   8 2.42  13 2.47  15 2.49   9 2.52  14 2.55
   4  0.294  0.342  0.222-   1 2.46   6 2.47  12 2.48  16 2.48  13 2.49  11 2.49   5 2.53
   5  0.337  0.289  0.271-  11 2.36   2 2.37  10 2.38   6 2.44   1 2.44   9 2.46   4 2.53  13 2.63
                            12 2.64
   6  0.312  0.266  0.197-   5 2.44  13 2.45  11 2.47   4 2.47   2 2.47
   7  0.214  0.257  0.383-   3 2.39  15 2.39  14 2.40   8 2.46
   8  0.286  0.220  0.395-  15 2.40   9 2.42   3 2.42   7 2.46
   9  0.338  0.240  0.337-   8 2.42   5 2.46  15 2.51   2 2.52   3 2.52  10 2.53
  10  0.350  0.324  0.340-  15 2.36   5 2.38  12 2.46   1 2.46   9 2.53
  11  0.373  0.320  0.208-   5 2.36   1 2.47   6 2.47   4 2.49
  12  0.281  0.348  0.303-  16 2.43  10 2.46   1 2.46  15 2.48   4 2.48  14 2.49   5 2.64  13 2.75

  13  0.253  0.277  0.252-  16 2.43   6 2.45   2 2.46  14 2.47   3 2.47   4 2.49   5 2.63  12 2.75

  14  0.212  0.304  0.319-   7 2.40  16 2.41  13 2.47  12 2.49   3 2.55  15 2.55
  15  0.282  0.295  0.367-  10 2.36   7 2.39   8 2.40  12 2.48   3 2.49   9 2.51  14 2.55
  16  0.218  0.350  0.253-  14 2.41  12 2.43  13 2.43   4 2.48
 

IMPORTANT INFORMATION: All symmetrisations will be switched off!
NOSYMM: (Re-)initialisation of all symmetry stuff for point group C_1.

 
 
 KPOINTS: Gamma-point only                        
  k-points in reciprocal lattice
Space group operators:
 irot       det(A)        alpha          n_x          n_y          n_z        tau_x        tau_y        tau_z
    1     1.000000     0.000000     1.000000     0.000000     0.000000     0.000000     0.000000     0.000000


--------------------------------------------------------------------------------------------------------




 Dimension of arrays:
   k-points           NKPTS =      1   k-points in BZ     NKDIM =      1   number of bands    NBANDS=    132
   number of dos      NEDOS =    301   number of ions     NIONS =     16
   non local maximal  LDIM  =      6   non local SUM 2l+1 LMDIM =     18
   total plane-waves  NPLWV = ******
   max r-space proj   IRMAX =      1   max aug-charges    IRDMAX=   2345
   dimension x,y,z NGX =   126 NGY =  126 NGZ =  126
   dimension x,y,z NGXF=   252 NGYF=  252 NGZF=  252
   support grid    NGXF=   252 NGYF=  252 NGZF=  252
   ions per type =              16
 NGX,Y,Z   is equivalent  to a cutoff of   6.98,  6.98,  6.98 a.u.
 NGXF,Y,Z  is equivalent  to a cutoff of  13.96, 13.96, 13.96 a.u.


 I would recommend the setting:
   dimension x,y,z NGX =   126 NGY =  126 NGZ =  126
 SYSTEM =  unknown system                          
 POSCAR =  Unknown Structure <s> Cu </s>           

 Startparameter for this run:
   NWRITE =      2    write-flag & timer
   PREC   = normal    normal or accurate (medium, high low for compatibility)
   ISTART =      0    job   : 0-new  1-cont  2-samecut
   ICHARG =      2    charge: 1-file 2-atom 10-const
   ISPIN  =      2    spin polarized calculation?
   LNONCOLLINEAR =      F non collinear calculations
   LSORBIT =      F    spin-orbit coupling
   INIWAV =      1    electr: 0-lowe 1-rand  2-diag
   LASPH  =      F    aspherical Exc in radial PAW
   METAGGA=      F    non-selfconsistent MetaGGA calc.

 Electronic Relaxation 1
   ENCUT  =  295.4 eV  21.71 Ry    4.66 a.u.  42.05 42.05 42.05*2*pi/ulx,y,z
   ENINI  =  295.4     initial cutoff
   ENAUG  =  587.0 eV  augmentation charge cutoff
   NELM   =     60;   NELMIN=  2; NELMDL=  0     # of ELM steps 
   EDIFF  = 0.1E-05   stopping-criterion for ELM
   LREAL  =      F    real-space projection
   NLSPLINE    = F    spline interpolate recip. space projectors
   LCOMPAT=      F    compatible to vasp.4.4
   GGA_COMPAT  = T    GGA compatible to vasp.4.4-vasp.4.6
   LMAXPAW     = -100 max onsite density
   LMAXMIX     =    2 max onsite mixed and CHGCAR
   VOSKOWN=      0    Vosko Wilk Nusair interpolation
   ROPT   =    0.00000
 Ionic relaxation
   EDIFFG = -.3E-01   stopping-criterion for IOM
   NSW    =   1000    number of steps for IOM
   NBLOCK =      1;   KBLOCK =   1000    inner block; outer block 
   IBRION =      2    ionic relax: 0-MD 1-quasi-New 2-CG
   NFREE  =      1    steps in history (QN), initial steepest desc. (CG)
   ISIF   =      2    stress and relaxation
   IWAVPR =     11    prediction:  0-non 1-charg 2-wave 3-comb
   ISYM   =      0    0-nonsym 1-usesym 2-fastsym
   LCORR  =      T    Harris-Foulkes like correction to forces

   POTIM  = 0.5000    time-step for ionic-motion
   TEIN   =    0.0    initial temperature
   TEBEG  =    0.0;   TEEND  =   0.0 temperature during run
   SMASS  =  -3.00    Nose mass-parameter (am)
   estimated Nose-frequenzy (Omega)   =  0.10E-29 period in steps =****** mass=  -0.206E-25a.u.
   SCALEE = 1.0000    scale energy and forces
   NPACO  =    256;   APACO  = 16.0  distance and # of slots for P.C.
   PSTRESS=    0.0 pullay stress

  Mass of Ions in am
   POMASS =  63.55
  Ionic Valenz
   ZVAL   =  11.00
  Atomic Wigner-Seitz radii
   RWIGS  =  -1.00
  virtual crystal weights 
   VCA    =   1.00
   NELECT =     176.0000    total number of electrons
   NUPDOWN=      -1.0000    fix difference up-down

 DOS related values:
   EMIN   =  10.00;   EMAX   =-10.00  energy-range for DOS
   EFERMI =   0.00
   ISMEAR =     0;   SIGMA  =   0.00  broadening in eV -4-tet -1-fermi 0-gaus

 Electronic relaxation 2 (details)
   IALGO  =     38    algorithm
   LDIAG  =      T    sub-space diagonalisation (order eigenvalues)
   LSUBROT=      F    optimize rotation matrix (better conditioning)
   TURBO    =      0    0=normal 1=particle mesh
   IRESTART =      0    0=no restart 2=restart with 2 vectors
   NREBOOT  =      0    no. of reboots
   NMIN     =      0    reboot dimension
   EREF     =   0.00    reference energy to select bands
   IMIX   =      4    mixing-type and parameters
     AMIX     =   0.40;   BMIX     =  1.00
     AMIX_MAG =   1.60;   BMIX_MAG =  1.00
     AMIN     =   0.10
     WC   =   100.;   INIMIX=   1;  MIXPRE=   1;  MAXMIX= -45

 Intra band minimization:
   WEIMIN = 0.0010     energy-eigenvalue tresh-hold
   EBREAK =  0.19E-08  absolut break condition
   DEPER  =   0.30     relativ break condition  

   TIME   =   0.40     timestep for ELM

  volume/ion in A,a.u.               =    1687.50     11387.81
  Fermi-wavevector in a.u.,A,eV,Ry     =   0.305814  0.577905  1.272449  0.093522
  Thomas-Fermi vector in A             =   1.179187
 
 Write flags
   LWAVE  =      F    write WAVECAR
   LCHARG =      F    write CHGCAR
   LVTOT  =      F    write LOCPOT, total local potential
   LVHAR  =      F    write LOCPOT, Hartree potential only
   LELF   =      F    write electronic localiz. function (ELF)
   LORBIT =     11    0 simple, 1 ext, 2 COOP (PROOUT)


 Dipole corrections
   LMONO  =      F    monopole corrections only (constant potential shift)
   LDIPOL =      F    correct potential (dipole corrections)
   IDIPOL =      0    1-x, 2-y, 3-z, 4-all directions 
   EPSILON=  1.0000000 bulk dielectric constant

 Exchange correlation treatment:
   GGA     =    PE    GGA type
   LEXCH   =     8    internal setting for exchange type
   VOSKOWN=      0    Vosko Wilk Nusair interpolation
   LHFCALC =     F    Hartree Fock is set to
   LHFONE  =     F    Hartree Fock one center treatment
   AEXX    =    0.0000 exact exchange contribution

 Linear response parameters
   LEPSILON=     F    determine dielectric tensor
   LRPA    =     F    only Hartree local field effects (RPA)
   LNABLA  =     F    use nabla operator in PAW spheres
   LVEL    =     F    velocity operator in full k-point grid
   LINTERFAST=   F  fast interpolation
   KINTER  =     0    interpolate to denser k-point grid
   CSHIFT  =0.1000    complex shift for real part using Kramers Kronig
   OMEGAMAX=  -1.0    maximum frequency
   DEG_THRESHOLD= 0.2000000E-02 threshold for treating states as degnerate
   RTIME   =    0.100 relaxation time in fs

 Orbital magnetization related:
   ORBITALMAG=     F  switch on orbital magnetization
   LCHIMAG   =     F  perturbation theory with respect to B field
   DQ        =  0.001000  dq finite difference perturbation B field



--------------------------------------------------------------------------------------------------------


 conjugate gradient relaxation of ions
 charge density and potential will be updated during run
 spin polarized calculation
 Variant of blocked Davidson
 Davidson routine will perform the subspace rotation
 perform sub-space diagonalisation
    after iterative eigenvector-optimisation
 modified Broyden-mixing scheme, WC =      100.0
 initial mixing is a Kerker type mixing with AMIX =  0.4000 and BMIX =      1.0000
 Hartree-type preconditioning will be used
 using additional bands           44
 reciprocal scheme for non local part
 use partial core corrections
 calculate Harris-corrections to forces 
   (improved forces if not selfconsistent)
 use gradient corrections 
 use of overlap-Matrix (Vanderbilt PP)
 Gauss-broadening in eV      SIGMA  =   0.00


--------------------------------------------------------------------------------------------------------


  energy-cutoff  :      295.45
  volume of cell :    27000.00
      direct lattice vectors                 reciprocal lattice vectors
    30.000000000  0.000000000  0.000000000     0.033333333  0.000000000  0.000000000
     0.000000000 30.000000000  0.000000000     0.000000000  0.033333333  0.000000000
     0.000000000  0.000000000 30.000000000     0.000000000  0.000000000  0.033333333

  length of vectors
    30.000000000 30.000000000 30.000000000     0.033333333  0.033333333  0.033333333


 
 k-points in units of 2pi/SCALE and weight: Gamma-point only                        
   0.00000000  0.00000000  0.00000000       1.000
 
 k-points in reciprocal lattice and weights: Gamma-point only                        
   0.00000000  0.00000000  0.00000000       1.000
 
 position of ions in fractional coordinates (direct lattice) 
   0.35386874  0.36820471  0.27142763
   0.30663274  0.21617641  0.26260093
   0.25582809  0.23106820  0.32091560
   0.29392186  0.34206850  0.22181765
   0.33741082  0.28863094  0.27056532
   0.31175817  0.26566166  0.19705061
   0.21383107  0.25710522  0.38346664
   0.28604911  0.22001453  0.39499375
   0.33794983  0.24040592  0.33669801
   0.35015668  0.32384176  0.34033568
   0.37276748  0.31981063  0.20774796
   0.28114214  0.34761013  0.30328475
   0.25258343  0.27685373  0.25237903
   0.21243391  0.30402382  0.31888712
   0.28208014  0.29494944  0.36695388
   0.21775997  0.34985178  0.25315668
 
 position of ions in cartesian coordinates  (Angst):
  10.61606218 11.04614137  8.14282886
   9.19898214  6.48529227  7.87802789
   7.67484267  6.93204614  9.62746813
   8.81765572 10.26205495  6.65452945
  10.12232449  8.65892823  8.11695949
   9.35274507  7.96984968  5.91151844
   6.41493219  7.71315653 11.50399910
   8.58147334  6.60043596 11.84981240
  10.13849504  7.21217763 10.10094025
  10.50470044  9.71525270 10.21007053
  11.18302431  9.59431895  6.23243891
   8.43426414 10.42830379  9.09854249
   7.57750289  8.30561188  7.57137096
   6.37301718  9.12071454  9.56661373
   8.46240433  8.84848328 11.00861653
   6.53279900 10.49555353  7.59470030
 


--------------------------------------------------------------------------------------------------------


 use parallel FFT for wavefunctions z direction half grid
 k-point  1 :   0.0000 0.0000 0.0000  plane waves:  155509

 maximum and minimum number of plane-waves per node :     25930    25903

 maximum number of plane-waves:    155509
 maximum index in each direction: 
   IXMAX=   42   IYMAX=   42   IZMAX=   42
   IXMIN=  -42   IYMIN=  -42   IZMIN=    0

 WARNING: aliasing errors must be expected set NGX to 170 to avoid them
 WARNING: aliasing errors must be expected set NGY to 170 to avoid them
 WARNING: aliasing errors must be expected set NGZ to 170 to avoid them
 aliasing errors are usually negligible using standard VASP settings
 and one can safely disregard these warnings

 parallel 3D FFT for wavefunctions:
    minimum data exchange during FFTs selected (reduces bandwidth)
 parallel 3D FFT for charge:
    minimum data exchange during FFTs selected (reduces bandwidth)


 total amount of memory used by VASP on root node   175749. kBytes
========================================================================

   base      :      30000. kBytes
   nonl-proj :      10361. kBytes
   fftplans  :      30597. kBytes
   grid      :      77361. kBytes
   one-center:         46. kBytes
   wavefun   :      27384. kBytes
 
     INWAV:  cpu time    0.0000: real time    0.0002
 Broyden mixing: mesh for mixing (old mesh)
   NGX = 85   NGY = 85   NGZ = 85
  (NGX  =252   NGY  =252   NGZ  =252)
  gives a total of 614125 points

 initial charge density was supplied:
 charge density of overlapping atoms calculated
 number of electron     176.0000000 magnetization      48.0000000
 keeping initial charge density in first step


--------------------------------------------------------------------------------------------------------


 Maximum index for augmentation-charges          201 (set IRDMAX)


--------------------------------------------------------------------------------------------------------


 First call to EWALD:  gamma=   0.059
 Maximum number of real-space cells 3x 3x 3
 Maximum number of reciprocal cells 3x 3x 3

 FEWALD executed in parallel
    FEWALD:  cpu time    0.0020: real time    0.0020


----------------------------------------- Iteration    1(   1)  ---------------------------------------


    POTLOK:  cpu time    1.3779: real time    1.3845
    SETDIJ:  cpu time    0.0158: real time    0.0158
     EDDAV:  cpu time   16.0509: real time   16.0756
       DOS:  cpu time    0.0001: real time    0.0001
    --------------------------------------------
      LOOP:  cpu time   17.4487: real time   17.4954

 eigenvalue-minimisations  :   560
 total energy-change (2. order) : 0.1132382E+04  (-0.2308336E+04)
 number of electron     176.0000000 magnetization      48.0000000
 augmentation part      176.0000000 magnetization      48.0000000

 Free energy of the ion-electron system (eV)
  ---------------------------------------------------
  alpha Z        PSCENC =         6.93407324
  Ewald energy   TEWEN  =     40638.85965207
  -Hartree energ DENC   =    -60869.54410531
  -exchange      EXHF   =         0.00000000
  -V(xc)+E(xc)   XCENC  =       735.13546499
  PAW double counting   =     19635.47487684   -21326.33402971
  entropy T*S    EENTRO =         0.00000000
  eigenvalues    EBANDS =        56.88622962
  atomic energy  EATOM  =     22254.96935453
  Solvation  Ediel_sol  =         0.00000000
  ---------------------------------------------------
  free energy    TOTEN  =      1132.38151628 eV

  energy without entropy =     1132.38151628  energy(sigma->0) =     1132.38151628


--------------------------------------------------------------------------------------------------------




----------------------------------------- Iteration    1(   2)  ---------------------------------------


     EDDAV:  cpu time   22.3286: real time   22.8800
       DOS:  cpu time    0.0001: real time    0.0001
    --------------------------------------------
      LOOP:  cpu time   22.3313: real time   22.8855

 eigenvalue-minimisations  :   840
 total energy-change (2. order) :-0.7874247E+03  (-0.6595081E+03)
 number of electron     176.0000000 magnetization      48.0000000
 augmentation part      176.0000000 magnetization      48.0000000

 Free energy of the ion-electron system (eV)
  ---------------------------------------------------
  alpha Z        PSCENC =         6.93407324
  Ewald energy   TEWEN  =     40638.85965207
  -Hartree energ DENC   =    -60869.54410531
  -exchange      EXHF   =         0.00000000
  -V(xc)+E(xc)   XCENC  =       735.13546499
  PAW double counting   =     19635.47487684   -21326.33402971
  entropy T*S    EENTRO =        -0.00000000
  eigenvalues    EBANDS =      -730.53845171
  atomic energy  EATOM  =     22254.96935453
  Solvation  Ediel_sol  =         0.00000000
  ---------------------------------------------------
  free energy    TOTEN  =       344.95683494 eV

  energy without entropy =      344.95683494  energy(sigma->0) =      344.95683494


--------------------------------------------------------------------------------------------------------




----------------------------------------- Iteration    1(   3)  ---------------------------------------


     EDDAV:  cpu time   19.3892: real time   19.4223
       DOS:  cpu time    0.0001: real time    0.0001
    --------------------------------------------
      LOOP:  cpu time   19.3921: real time   19.4281

 eigenvalue-minimisations  :   696
 total energy-change (2. order) :-0.3250363E+03  (-0.3078575E+03)
 number of electron     176.0000000 magnetization      48.0000000
 augmentation part      176.0000000 magnetization      48.0000000

 Free energy of the ion-electron system (eV)
  ---------------------------------------------------
  alpha Z        PSCENC =         6.93407324
  Ewald energy   TEWEN  =     40638.85965207
  -Hartree energ DENC   =    -60869.54410531
  -exchange      EXHF   =         0.00000000
  -V(xc)+E(xc)   XCENC  =       735.13546499
  PAW double counting   =     19635.47487684   -21326.33402971
  entropy T*S    EENTRO =         0.00000000
  eigenvalues    EBANDS =     -1055.57478990
  atomic energy  EATOM  =     22254.96935453
  Solvation  Ediel_sol  =         0.00000000
  ---------------------------------------------------
  free energy    TOTEN  =        19.92049675 eV

  energy without entropy =       19.92049675  energy(sigma->0) =       19.92049675


--------------------------------------------------------------------------------------------------------




----------------------------------------- Iteration    1(   4)  ---------------------------------------


     EDDAV:  cpu time   20.6116: real time   20.6562
       DOS:  cpu time    0.0001: real time    0.0001
    --------------------------------------------
      LOOP:  cpu time   20.6145: real time   20.6617

 eigenvalue-minimisations  :   752
 total energy-change (2. order) :-0.4532443E+02  (-0.3981435E+02)
 number of electron     176.0000000 magnetization      48.0000000
 augmentation part      176.0000000 magnetization      48.0000000

 Free energy of the ion-electron system (eV)
  ---------------------------------------------------
  alpha Z        PSCENC =         6.93407324
  Ewald energy   TEWEN  =     40638.85965207
  -Hartree energ DENC   =    -60869.54410531
  -exchange      EXHF   =         0.00000000
  -V(xc)+E(xc)   XCENC  =       735.13546499
  PAW double counting   =     19635.47487684   -21326.33402971
  entropy T*S    EENTRO =         0.00000000
  eigenvalues    EBANDS =     -1100.89922448
  atomic energy  EATOM  =     22254.96935453
  Solvation  Ediel_sol  =         0.00000000
  ---------------------------------------------------
  free energy    TOTEN  =       -25.40393783 eV

  energy without entropy =      -25.40393783  energy(sigma->0) =      -25.40393783


--------------------------------------------------------------------------------------------------------




----------------------------------------- Iteration    1(   5)  ---------------------------------------


     EDDAV:  cpu time   19.3211: real time   19.3664
       DOS:  cpu time    0.0001: real time    0.0001
    CHARGE:  cpu time    0.6655: real time    0.6660
    MIXING:  cpu time    0.0275: real time    0.0275
    --------------------------------------------
      LOOP:  cpu time   20.0172: real time   20.0657

 eigenvalue-minimisations  :   696
 total energy-change (2. order) :-0.1991220E+01  (-0.1912061E+01)
 number of electron     176.0000177 magnetization      45.4450846
 augmentation part      104.4126118 magnetization      43.2198489

 Broyden mixing:
  rms(total) = 0.70932E+01    rms(broyden)= 0.70916E+01
  rms(prec ) = 0.71336E+01
  weight for this iteration     100.00

 Free energy of the ion-electron system (eV)
  ---------------------------------------------------
  alpha Z        PSCENC =         6.93407324
  Ewald energy   TEWEN  =     40638.85965207
  -Hartree energ DENC   =    -60869.54410531
  -exchange      EXHF   =         0.00000000
  -V(xc)+E(xc)   XCENC  =       735.13546499
  PAW double counting   =     19635.47487684   -21326.33402971
  entropy T*S    EENTRO =         0.00000000
  eigenvalues    EBANDS =     -1102.89044495
  atomic energy  EATOM  =     22254.96935453
  Solvation  Ediel_sol  =         0.00000000
  ---------------------------------------------------
  free energy    TOTEN  =       -27.39515830 eV

  energy without entropy =      -27.39515830  energy(sigma->0) =      -27.39515830


--------------------------------------------------------------------------------------------------------




----------------------------------------- Iteration    1(   6)  ---------------------------------------


    POTLOK:  cpu time    1.3811: real time    1.3824
    SETDIJ:  cpu time    0.0163: real time    0.0163
     EDDAV:  cpu time   17.0431: real time   17.1000
       DOS:  cpu time    0.0001: real time    0.0001
    CHARGE:  cpu time    0.6684: real time    0.6688
    MIXING:  cpu time    0.0300: real time    0.0302
    --------------------------------------------
      LOOP:  cpu time   19.1421: real time   19.2038

 eigenvalue-minimisations  :   596
 total energy-change (2. order) : 0.1318943E+03  (-0.7398923E+02)
 number of electron     176.0000183 magnetization      43.5165345
 augmentation part      120.3394644 magnetization      29.6535971

 Broyden mixing:
  rms(total) = 0.30935E+01    rms(broyden)= 0.30908E+01
  rms(prec ) = 0.31624E+01
  weight for this iteration     100.00

 eigenvalues of (default mixing * dielectric matrix)
  average eigenvalue GAMMA=   0.9275
  0.9275

 Free energy of the ion-electron system (eV)
  ---------------------------------------------------
  alpha Z        PSCENC =         6.93407324
  Ewald energy   TEWEN  =     40638.85965207
  -Hartree energ DENC   =    -60429.16526532
  -exchange      EXHF   =         0.00000000
  -V(xc)+E(xc)   XCENC  =       808.42595350
  PAW double counting   =     19679.75125403   -21291.22791081
  entropy T*S    EENTRO =        -0.00000000
  eigenvalues    EBANDS =     -1564.04793957
  atomic energy  EATOM  =     22254.96935453
  Solvation  Ediel_sol  =         0.00000000
  ---------------------------------------------------
  free energy    TOTEN  =       104.49917167 eV

  energy without entropy =      104.49917167  energy(sigma->0) =      104.49917167


--------------------------------------------------------------------------------------------------------




----------------------------------------- Iteration    1(   7)  ---------------------------------------


    POTLOK:  cpu time    1.3813: real time    1.3826
    SETDIJ:  cpu time    0.0119: real time    0.0166
     EDDAV:  cpu time   18.9340: real time   18.9657
       DOS:  cpu time    0.0002: real time    0.0002
    CHARGE:  cpu time    0.6665: real time    0.6669
    MIXING:  cpu time    0.0323: real time    0.0323
    --------------------------------------------
      LOOP:  cpu time   21.0295: real time   21.0705

 eigenvalue-minimisations  :   680
 total energy-change (2. order) :-0.1897436E+02  (-0.2938075E+02)
 number of electron     176.0000173 magnetization      41.1681587
 augmentation part      114.3649567 magnetization      26.7571096

 Broyden mixing:
  rms(total) = 0.15185E+01    rms(broyden)= 0.15177E+01
  rms(prec ) = 0.15331E+01
  weight for this iteration     100.00

 eigenvalues of (default mixing * dielectric matrix)
  average eigenvalue GAMMA=   0.8872
  1.0882  0.6862

 Free energy of the ion-electron system (eV)
  ---------------------------------------------------
  alpha Z        PSCENC =         6.93407324
  Ewald energy   TEWEN  =     40638.85965207
  -Hartree energ DENC   =    -60785.88966787
  -exchange      EXHF   =         0.00000000
  -V(xc)+E(xc)   XCENC  =       807.76214220
  PAW double counting   =     20244.28642700   -21987.43720953
  entropy T*S    EENTRO =         0.00000000
  eigenvalues    EBANDS =     -1093.95995792
  atomic energy  EATOM  =     22254.96935453
  Solvation  Ediel_sol  =         0.00000000
  ---------------------------------------------------
  free energy    TOTEN  =        85.52481372 eV

  energy without entropy =       85.52481372  energy(sigma->0) =       85.52481372


--------------------------------------------------------------------------------------------------------




----------------------------------------- Iteration    1(   8)  ---------------------------------------


    POTLOK:  cpu time    1.3769: real time    1.3782
    SETDIJ:  cpu time    0.0160: real time    0.0162
     EDDAV:  cpu time   18.9034: real time   18.9499
       DOS:  cpu time    0.0002: real time    0.0002
    CHARGE:  cpu time    0.6759: real time    0.6761
    MIXING:  cpu time    0.0342: real time    0.0342
    --------------------------------------------
      LOOP:  cpu time   21.0102: real time   21.0612

 eigenvalue-minimisations  :   684
 total energy-change (2. order) : 0.6753541E+01  (-0.4297599E+01)
 number of electron     176.0000182 magnetization      39.7452803
 augmentation part      112.3883404 magnetization      23.2434975

 Broyden mixing:
  rms(total) = 0.12799E+01    rms(broyden)= 0.12785E+01
  rms(prec ) = 0.13034E+01
  weight for this iteration     100.00

 eigenvalues of (default mixing * dielectric matrix)
  average eigenvalue GAMMA=   0.8182
  1.1524  0.7136  0.5885

 Free energy of the ion-electron system (eV)
  ---------------------------------------------------
  alpha Z        PSCENC =         6.93407324
  Ewald energy   TEWEN  =     40638.85965207
  -Hartree energ DENC   =    -60876.87086626
  -exchange      EXHF   =         0.00000000
  -V(xc)+E(xc)   XCENC  =       814.66470422
  PAW double counting   =     20624.95655879   -22381.70971277
  entropy T*S    EENTRO =        -0.00000000
  eigenvalues    EBANDS =      -989.52540900
  atomic energy  EATOM  =     22254.96935453
  Solvation  Ediel_sol  =         0.00000000
  ---------------------------------------------------
  free energy    TOTEN  =        92.27835483 eV

  energy without entropy =       92.27835483  energy(sigma->0) =       92.27835483


--------------------------------------------------------------------------------------------------------




----------------------------------------- Iteration    1(   9)  ---------------------------------------


    POTLOK:  cpu time    1.3764: real time    1.3772
    SETDIJ:  cpu time    0.0164: real time    0.0164
     EDDAV:  cpu time   18.8260: real time   18.8608
       DOS:  cpu time    0.0001: real time    0.0001
    CHARGE:  cpu time    0.6692: real time    0.6698
    MIXING:  cpu time    0.0373: real time    0.0373
    --------------------------------------------
      LOOP:  cpu time   20.9292: real time   20.9681

 eigenvalue-minimisations  :   680
 total energy-change (2. order) :-0.7170753E+01  (-0.1203016E+01)
 number of electron     176.0000172 magnetization      37.1007651
 augmentation part      113.0171006 magnetization      22.4746078

 Broyden mixing:
  rms(total) = 0.92371E+00    rms(broyden)= 0.92260E+00
  rms(prec ) = 0.92975E+00
  weight for this iteration     100.00

 eigenvalues of (default mixing * dielectric matrix)
  average eigenvalue GAMMA=   0.8607
  1.3318  0.8287  0.8287  0.4537

 Free energy of the ion-electron system (eV)
  ---------------------------------------------------
  alpha Z        PSCENC =         6.93407324
  Ewald energy   TEWEN  =     40638.85965207
  -Hartree energ DENC   =    -60845.25537399
  -exchange      EXHF   =         0.00000000
  -V(xc)+E(xc)   XCENC  =       808.02390511
  PAW double counting   =     20682.10220256   -22426.95790776
  entropy T*S    EENTRO =         0.00000000
  eigenvalues    EBANDS =     -1033.56830427
  atomic energy  EATOM  =     22254.96935453
  Solvation  Ediel_sol  =         0.00000000
  ---------------------------------------------------
  free energy    TOTEN  =        85.10760149 eV

  energy without entropy =       85.10760149  energy(sigma->0) =       85.10760149


--------------------------------------------------------------------------------------------------------




----------------------------------------- Iteration    1(  10)  ---------------------------------------


    POTLOK:  cpu time    1.3785: real time    1.3790
    SETDIJ:  cpu time    0.0162: real time    0.0162
     EDDAV:  cpu time   20.8491: real time   20.8987
       DOS:  cpu time    0.0001: real time    0.0001
    CHARGE:  cpu time    0.6639: real time    0.6644
    MIXING:  cpu time    0.0420: real time    0.0420
    --------------------------------------------
      LOOP:  cpu time   22.9534: real time   23.0069

 eigenvalue-minimisations  :   772
 total energy-change (2. order) :-0.2426939E+02  (-0.9757139E+00)
 number of electron     176.0000178 magnetization      33.5969378
 augmentation part      113.6715918 magnetization      21.1238873

 Broyden mixing:
  rms(total) = 0.79677E+00    rms(broyden)= 0.79600E+00
  rms(prec ) = 0.80525E+00
  weight for this iteration     100.00

 eigenvalues of (default mixing * dielectric matrix)
  average eigenvalue GAMMA=   0.9554
  1.9394  1.1015  0.7283  0.5038  0.5038

 Free energy of the ion-electron system (eV)
  ---------------------------------------------------
  alpha Z        PSCENC =         6.93407324
  Ewald energy   TEWEN  =     40638.85965207
  -Hartree energ DENC   =    -60836.81044132
  -exchange      EXHF   =         0.00000000
  -V(xc)+E(xc)   XCENC  =       787.68503307
  PAW double counting   =     20771.91248825   -22502.78580611
  entropy T*S    EENTRO =         0.00000000
  eigenvalues    EBANDS =     -1059.92614245
  atomic energy  EATOM  =     22254.96935453
  Solvation  Ediel_sol  =         0.00000000
  ---------------------------------------------------
  free energy    TOTEN  =        60.83821128 eV

  energy without entropy =       60.83821128  energy(sigma->0) =       60.83821128


--------------------------------------------------------------------------------------------------------




----------------------------------------- Iteration    1(  11)  ---------------------------------------


    POTLOK:  cpu time    1.3733: real time    1.3747
    SETDIJ:  cpu time    0.0171: real time    0.0171
     EDDAV:  cpu time   19.5277: real time   19.5716
       DOS:  cpu time    0.0001: real time    0.0001
    CHARGE:  cpu time    0.6678: real time    0.6679
    MIXING:  cpu time    0.0450: real time    0.0450
    --------------------------------------------
      LOOP:  cpu time   21.6344: real time   21.6826

 eigenvalue-minimisations  :   712
 total energy-change (2. order) :-0.2044323E+02  (-0.1378574E+01)
 number of electron     176.0000173 magnetization      31.2566980
 augmentation part      113.6320914 magnetization      21.1884763

 Broyden mixing:
  rms(total) = 0.65242E+00    rms(broyden)= 0.65174E+00
  rms(prec ) = 0.65777E+00
  weight for this iteration     100.00

 eigenvalues of (default mixing * dielectric matrix)
  average eigenvalue GAMMA=   0.9761
  2.4099  1.1910  0.6801  0.5774  0.5774  0.4205

 Free energy of the ion-electron system (eV)
  ---------------------------------------------------
  alpha Z        PSCENC =         6.93407324
  Ewald energy   TEWEN  =     40638.85965207
  -Hartree energ DENC   =    -60861.46493018
  -exchange      EXHF   =         0.00000000
  -V(xc)+E(xc)   XCENC  =       772.77564676
  PAW double counting   =     20883.72509471   -22606.57614390
  entropy T*S    EENTRO =         0.00000000
  eigenvalues    EBANDS =     -1048.82776972
  atomic energy  EATOM  =     22254.96935453
  Solvation  Ediel_sol  =         0.00000000
  ---------------------------------------------------
  free energy    TOTEN  =        40.39497750 eV

  energy without entropy =       40.39497750  energy(sigma->0) =       40.39497750


--------------------------------------------------------------------------------------------------------




----------------------------------------- Iteration    1(  12)  ---------------------------------------


    POTLOK:  cpu time    1.3679: real time    1.3778
    SETDIJ:  cpu time    0.0166: real time    0.0166
     EDDAV:  cpu time   18.8222: real time   18.8575
       DOS:  cpu time    0.0001: real time    0.0001
    CHARGE:  cpu time    0.6609: real time    0.6613
    MIXING:  cpu time    0.0498: real time    0.0498
    --------------------------------------------
      LOOP:  cpu time   20.9211: real time   20.9695

 eigenvalue-minimisations  :   680
 total energy-change (2. order) :-0.1040658E+02  (-0.8289313E+00)
 number of electron     176.0000170 magnetization      27.8511095
 augmentation part      113.3700160 magnetization      18.4750276

 Broyden mixing:
  rms(total) = 0.52273E+00    rms(broyden)= 0.52265E+00
  rms(prec ) = 0.52660E+00
  weight for this iteration     100.00

 eigenvalues of (default mixing * dielectric matrix)
  average eigenvalue GAMMA=   1.0904
  2.9367  1.6368  0.7367  0.7367  0.6307  0.4777  0.4777

 Free energy of the ion-electron system (eV)
  ---------------------------------------------------
  alpha Z        PSCENC =         6.93407324
  Ewald energy   TEWEN  =     40638.85965207
  -Hartree energ DENC   =    -60884.05770091
  -exchange      EXHF   =         0.00000000
  -V(xc)+E(xc)   XCENC  =       766.05483175
  PAW double counting   =     20925.35572083   -22646.77172181
  entropy T*S    EENTRO =         0.00000000
  eigenvalues    EBANDS =     -1031.35580858
  atomic energy  EATOM  =     22254.96935453
  Solvation  Ediel_sol  =         0.00000000
  ---------------------------------------------------
  free energy    TOTEN  =        29.98840113 eV

  energy without entropy =       29.98840113  energy(sigma->0) =       29.98840113


--------------------------------------------------------------------------------------------------------




----------------------------------------- Iteration    1(  13)  ---------------------------------------


    POTLOK:  cpu time    1.3716: real time    1.3784
    SETDIJ:  cpu time    0.0155: real time    0.0155
     EDDAV:  cpu time   19.5029: real time   19.5386
       DOS:  cpu time    0.0001: real time    0.0001
    CHARGE:  cpu time    0.6672: real time    0.6677
    MIXING:  cpu time    0.0537: real time    0.0538
    --------------------------------------------
      LOOP:  cpu time   21.6146: real time   21.6605

 eigenvalue-minimisations  :   712
 total energy-change (2. order) :-0.2179916E+02  (-0.1353227E+01)
 number of electron     176.0000173 magnetization      24.3762877
 augmentation part      112.9714565 magnetization      16.1046424

 Broyden mixing:
  rms(total) = 0.40855E+00    rms(broyden)= 0.40843E+00
  rms(prec ) = 0.41405E+00
  weight for this iteration     100.00

 eigenvalues of (default mixing * dielectric matrix)
  average eigenvalue GAMMA=   1.1683
  3.6772  1.9902  0.7844  0.7844  0.6006  0.6006  0.4685  0.4403

 Free energy of the ion-electron system (eV)
  ---------------------------------------------------
  alpha Z        PSCENC =         6.93407324
  Ewald energy   TEWEN  =     40638.85965207
  -Hartree energ DENC   =    -60896.38133617
  -exchange      EXHF   =         0.00000000
  -V(xc)+E(xc)   XCENC  =       749.37211014
  PAW double counting   =     20892.81231437   -22610.83119548
  entropy T*S    EENTRO =         0.00000000
  eigenvalues    EBANDS =     -1027.54573002
  atomic energy  EATOM  =     22254.96935453
  Solvation  Ediel_sol  =         0.00000000
  ---------------------------------------------------
  free energy    TOTEN  =         8.18924268 eV

  energy without entropy =        8.18924268  energy(sigma->0) =        8.18924268


--------------------------------------------------------------------------------------------------------




----------------------------------------- Iteration    1(  14)  ---------------------------------------


    POTLOK:  cpu time    1.3713: real time    1.3789
    SETDIJ:  cpu time    0.0161: real time    0.0161
     EDDAV:  cpu time   19.8787: real time   19.9169
       DOS:  cpu time    0.0001: real time    0.0001
    CHARGE:  cpu time    0.6702: real time    0.6707
    MIXING:  cpu time    0.0634: real time    0.0634
    --------------------------------------------
      LOOP:  cpu time   22.0035: real time   22.0526

 eigenvalue-minimisations  :   724
 total energy-change (2. order) :-0.1996276E+02  (-0.1376041E+01)
 number of electron     176.0000166 magnetization      21.9342646
 augmentation part      112.8815859 magnetization      16.3855700

 Broyden mixing:
  rms(total) = 0.36946E+00    rms(broyden)= 0.36862E+00
  rms(prec ) = 0.37723E+00
  weight for this iteration     100.00

 eigenvalues of (default mixing * dielectric matrix)
  average eigenvalue GAMMA=   1.1710
  4.2536  1.9990  0.7991  0.7991  0.7083  0.7083  0.4568  0.4568  0.3584

 Free energy of the ion-electron system (eV)
  ---------------------------------------------------
  alpha Z        PSCENC =         6.93407324
  Ewald energy   TEWEN  =     40638.85965207
  -Hartree energ DENC   =    -60885.53447053
  -exchange      EXHF   =         0.00000000
  -V(xc)+E(xc)   XCENC  =       733.46339787
  PAW double counting   =     20810.07471897   -22523.80562159
  entropy T*S    EENTRO =         0.00000000
  eigenvalues    EBANDS =     -1046.73462239
  atomic energy  EATOM  =     22254.96935453
  Solvation  Ediel_sol  =         0.00000000
  ---------------------------------------------------
  free energy    TOTEN  =       -11.77351785 eV

  energy without entropy =      -11.77351785  energy(sigma->0) =      -11.77351785


--------------------------------------------------------------------------------------------------------




----------------------------------------- Iteration    1(  15)  ---------------------------------------


    POTLOK:  cpu time    1.3807: real time    1.3827
    SETDIJ:  cpu time    0.0160: real time    0.0160
     EDDAV:  cpu time   20.4639: real time   20.5065
       DOS:  cpu time    0.0002: real time    0.0002
    CHARGE:  cpu time    0.6655: real time    0.6672
    MIXING:  cpu time    0.0674: real time    0.0674
    --------------------------------------------
      LOOP:  cpu time   22.5971: real time   22.6463

 eigenvalue-minimisations  :   752
 total energy-change (2. order) :-0.6378044E+01  (-0.4510780E+00)
 number of electron     176.0000166 magnetization      19.3025041
 augmentation part      112.7477936 magnetization      14.3234143

 Broyden mixing:
  rms(total) = 0.29044E+00    rms(broyden)= 0.29034E+00
  rms(prec ) = 0.29558E+00
  weight for this iteration     100.00

 eigenvalues of (default mixing * dielectric matrix)
  average eigenvalue GAMMA=   1.2570
  4.9083  2.3576  0.9503  0.9503  0.7490  0.7490  0.4893  0.4893  0.4892  0.4380

 Free energy of the ion-electron system (eV)
  ---------------------------------------------------
  alpha Z        PSCENC =         6.93407324
  Ewald energy   TEWEN  =     40638.85965207
  -Hartree energ DENC   =    -60891.31468969
  -exchange      EXHF   =         0.00000000
  -V(xc)+E(xc)   XCENC  =       728.74638256
  PAW double counting   =     20810.01013977   -22523.85143159
  entropy T*S    EENTRO =         0.00000000
  eigenvalues    EBANDS =     -1042.50504273
  atomic energy  EATOM  =     22254.96935453
  Solvation  Ediel_sol  =         0.00000000
  ---------------------------------------------------
  free energy    TOTEN  =       -18.15156185 eV

  energy without entropy =      -18.15156185  energy(sigma->0) =      -18.15156185


--------------------------------------------------------------------------------------------------------




----------------------------------------- Iteration    1(  16)  ---------------------------------------


    POTLOK:  cpu time    1.3731: real time    1.3797
    SETDIJ:  cpu time    0.0168: real time    0.0168
     EDDAV:  cpu time   19.0997: real time   19.4541
       DOS:  cpu time    0.0002: real time    0.0002
    CHARGE:  cpu time    0.6573: real time    0.6575
    MIXING:  cpu time    0.0723: real time    0.0723
    --------------------------------------------
      LOOP:  cpu time   21.2231: real time   21.5871

 eigenvalue-minimisations  :   688
 total energy-change (2. order) :-0.7960922E+01  (-0.4497770E+00)
 number of electron     176.0000174 magnetization      16.8973572
 augmentation part      112.9347134 magnetization      14.1478098

 Broyden mixing:
  rms(total) = 0.28895E+00    rms(broyden)= 0.28807E+00
  rms(prec ) = 0.29467E+00
  weight for this iteration     100.00

 eigenvalues of (default mixing * dielectric matrix)
  average eigenvalue GAMMA=   1.2421
  5.6004  2.3127  0.9256  0.9256  0.8287  0.8287  0.5258  0.5258  0.4398  0.4398
  0.3096

 Free energy of the ion-electron system (eV)
  ---------------------------------------------------
  alpha Z        PSCENC =         6.93407324
  Ewald energy   TEWEN  =     40638.85965207
  -Hartree energ DENC   =    -60876.04594216
  -exchange      EXHF   =         0.00000000
  -V(xc)+E(xc)   XCENC  =       721.94098994
  PAW double counting   =     20757.16265806   -22469.05757025
  entropy T*S    EENTRO =         0.00000000
  eigenvalues    EBANDS =     -1060.87569888
  atomic energy  EATOM  =     22254.96935453
  Solvation  Ediel_sol  =         0.00000000
  ---------------------------------------------------
  free energy    TOTEN  =       -26.11248346 eV

  energy without entropy =      -26.11248346  energy(sigma->0) =      -26.11248346


--------------------------------------------------------------------------------------------------------




----------------------------------------- Iteration    1(  17)  ---------------------------------------


    POTLOK:  cpu time    1.3948: real time    1.3997
    SETDIJ:  cpu time    0.0165: real time    0.0165
     EDDAV:  cpu time   20.8590: real time   20.8937
       DOS:  cpu time    0.0002: real time    0.0002
    CHARGE:  cpu time    0.6616: real time    0.6621
    MIXING:  cpu time    0.0790: real time    0.0790
    --------------------------------------------
      LOOP:  cpu time   23.0157: real time   23.0586

 eigenvalue-minimisations  :   768
 total energy-change (2. order) :-0.4016812E+01  (-0.1815428E+00)
 number of electron     176.0000172 magnetization      15.2224441
 augmentation part      112.9180417 magnetization      12.8459409

 Broyden mixing:
  rms(total) = 0.21002E+00    rms(broyden)= 0.20993E+00
  rms(prec ) = 0.21509E+00
  weight for this iteration     100.00

 eigenvalues of (default mixing * dielectric matrix)
  average eigenvalue GAMMA=   1.3061
  6.3953  2.3501  1.0345  1.0345  0.8704  0.8704  0.6915  0.6915  0.4612  0.4612
  0.4065  0.4065

 Free energy of the ion-electron system (eV)
  ---------------------------------------------------
  alpha Z        PSCENC =         6.93407324
  Ewald energy   TEWEN  =     40638.85965207
  -Hartree energ DENC   =    -60874.80160300
  -exchange      EXHF   =         0.00000000
  -V(xc)+E(xc)   XCENC  =       718.61754993
  PAW double counting   =     20741.33539249   -22453.52896956
  entropy T*S    EENTRO =         0.00000000
  eigenvalues    EBANDS =     -1062.51474531
  atomic energy  EATOM  =     22254.96935453
  Solvation  Ediel_sol  =         0.00000000
  ---------------------------------------------------
  free energy    TOTEN  =       -30.12929562 eV

  energy without entropy =      -30.12929562  energy(sigma->0) =      -30.12929562


--------------------------------------------------------------------------------------------------------




----------------------------------------- Iteration    1(  18)  ---------------------------------------


    POTLOK:  cpu time    1.3786: real time    1.3794
    SETDIJ:  cpu time    0.0163: real time    0.0163
     EDDAV:  cpu time   19.9609: real time   20.0015
       DOS:  cpu time    0.0002: real time    0.0002
    CHARGE:  cpu time    0.6617: real time    0.6620
    MIXING:  cpu time    0.0845: real time    0.0845
    --------------------------------------------
      LOOP:  cpu time   22.1058: real time   22.1506

 eigenvalue-minimisations  :   728
 total energy-change (2. order) :-0.3013985E+01  (-0.1075926E+00)
 number of electron     176.0000171 magnetization      13.4829083
 augmentation part      112.8373885 magnetization      12.9956657

 Broyden mixing:
  rms(total) = 0.24436E+00    rms(broyden)= 0.24361E+00
  rms(prec ) = 0.25067E+00
  weight for this iteration     100.00

 eigenvalues of (default mixing * dielectric matrix)
  average eigenvalue GAMMA=   1.2670
  6.8663  2.2337  1.2486  0.9931  0.9931  0.8261  0.6802  0.6802  0.4544  0.4544
  0.4116  0.4116  0.2181

 Free energy of the ion-electron system (eV)
  ---------------------------------------------------
  alpha Z        PSCENC =         6.93407324
  Ewald energy   TEWEN  =     40638.85965207
  -Hartree energ DENC   =    -60870.25034482
  -exchange      EXHF   =         0.00000000
  -V(xc)+E(xc)   XCENC  =       716.21672613
  PAW double counting   =     20722.77661987   -22436.99267124
  entropy T*S    EENTRO =         0.00000000
  eigenvalues    EBANDS =     -1065.65669078
  atomic energy  EATOM  =     22254.96935453
  Solvation  Ediel_sol  =         0.00000000
  ---------------------------------------------------
  free energy    TOTEN  =       -33.14328101 eV

  energy without entropy =      -33.14328101  energy(sigma->0) =      -33.14328101


--------------------------------------------------------------------------------------------------------




----------------------------------------- Iteration    1(  19)  ---------------------------------------


    POTLOK:  cpu time    1.3797: real time    1.3804
    SETDIJ:  cpu time    0.0156: real time    0.0156
     EDDAV:  cpu time   21.3773: real time   21.4259
       DOS:  cpu time    0.0002: real time    0.0002
    CHARGE:  cpu time    0.6552: real time    0.6558
    MIXING:  cpu time    0.0927: real time    0.0927
    --------------------------------------------
      LOOP:  cpu time   23.5242: real time   23.5770

 eigenvalue-minimisations  :   792
 total energy-change (2. order) :-0.1402070E+01  (-0.3780055E-01)
 number of electron     176.0000170 magnetization      10.9480641
 augmentation part      112.8046208 magnetization      10.6382209

 Broyden mixing:
  rms(total) = 0.17250E+00    rms(broyden)= 0.17243E+00
  rms(prec ) = 0.17765E+00
  weight for this iteration     100.00

 eigenvalues of (default mixing * dielectric matrix)
  average eigenvalue GAMMA=   1.3509
  7.9141  1.8569  1.3844  1.3844  1.0546  1.0546  0.7464  0.7464  0.5539  0.5539
  0.4340  0.4340  0.3975  0.3975

 Free energy of the ion-electron system (eV)
  ---------------------------------------------------
  alpha Z        PSCENC =         6.93407324
  Ewald energy   TEWEN  =     40638.85965207
  -Hartree energ DENC   =    -60871.02036806
  -exchange      EXHF   =         0.00000000
  -V(xc)+E(xc)   XCENC  =       715.06962832
  PAW double counting   =     20718.89198039   -22433.82059928
  entropy T*S    EENTRO =         0.00000000
  eigenvalues    EBANDS =     -1064.42907218
  atomic energy  EATOM  =     22254.96935453
  Solvation  Ediel_sol  =         0.00000000
  ---------------------------------------------------
  free energy    TOTEN  =       -34.54535097 eV

  energy without entropy =      -34.54535097  energy(sigma->0) =      -34.54535097


--------------------------------------------------------------------------------------------------------




----------------------------------------- Iteration    1(  20)  ---------------------------------------


    POTLOK:  cpu time    1.3753: real time    1.3827
    SETDIJ:  cpu time    0.0161: real time    0.0161
     EDDAV:  cpu time   19.8517: real time   19.8884
       DOS:  cpu time    0.0001: real time    0.0001
    CHARGE:  cpu time    0.6605: real time    0.6607
    MIXING:  cpu time    0.1033: real time    0.1033
    --------------------------------------------
      LOOP:  cpu time   22.0106: real time   22.0576

 eigenvalue-minimisations  :   724
 total energy-change (2. order) :-0.2156378E+01  (-0.5463554E-01)
 number of electron     176.0000170 magnetization       8.5479234
 augmentation part      112.8457159 magnetization       8.4243666

 Broyden mixing:
  rms(total) = 0.11454E+00    rms(broyden)= 0.11451E+00
  rms(prec ) = 0.11758E+00
  weight for this iteration     100.00

 eigenvalues of (default mixing * dielectric matrix)
  average eigenvalue GAMMA=   1.4795
  9.4483  2.0730  2.0730  1.5476  1.0925  1.0925  0.7144  0.7144  0.6488  0.6488
  0.4898  0.4256  0.4256  0.3995  0.3995

 Free energy of the ion-electron system (eV)
  ---------------------------------------------------
  alpha Z        PSCENC =         6.93407324
  Ewald energy   TEWEN  =     40638.85965207
  -Hartree energ DENC   =    -60861.70087587
  -exchange      EXHF   =         0.00000000
  -V(xc)+E(xc)   XCENC  =       712.99561735
  PAW double counting   =     20695.15264493   -22410.61505748
  entropy T*S    EENTRO =         0.00000000
  eigenvalues    EBANDS =     -1073.29713796
  atomic energy  EATOM  =     22254.96935453
  Solvation  Ediel_sol  =         0.00000000
  ---------------------------------------------------
  free energy    TOTEN  =       -36.70172919 eV

  energy without entropy =      -36.70172919  energy(sigma->0) =      -36.70172919


--------------------------------------------------------------------------------------------------------




----------------------------------------- Iteration    1(  21)  ---------------------------------------


    POTLOK:  cpu time    1.3707: real time    1.3775
    SETDIJ:  cpu time    0.0161: real time    0.0161
     EDDAV:  cpu time   20.1100: real time   20.1470
       DOS:  cpu time    0.0001: real time    0.0001
    CHARGE:  cpu time    0.6624: real time    0.6629
    MIXING:  cpu time    0.1084: real time    0.1084
    --------------------------------------------
      LOOP:  cpu time   22.2713: real time   22.3182

 eigenvalue-minimisations  :   736
 total energy-change (2. order) :-0.1531907E+01  (-0.3494279E-01)
 number of electron     176.0000170 magnetization       7.0897466
 augmentation part      112.8639784 magnetization       7.0737415

 Broyden mixing:
  rms(total) = 0.85143E-01    rms(broyden)= 0.85112E-01
  rms(prec ) = 0.87023E-01
  weight for this iteration     100.00

 eigenvalues of (default mixing * dielectric matrix)
  average eigenvalue GAMMA=   1.5122
 10.1055  2.6776  2.0906  1.1717  1.1717  1.0702  1.0702  0.7385  0.7385  0.6304
  0.6304  0.4269  0.4269  0.4537  0.3961  0.3961

 Free energy of the ion-electron system (eV)
  ---------------------------------------------------
  alpha Z        PSCENC =         6.93407324
  Ewald energy   TEWEN  =     40638.85965207
  -Hartree energ DENC   =    -60850.36044349
  -exchange      EXHF   =         0.00000000
  -V(xc)+E(xc)   XCENC  =       711.43694650
  PAW double counting   =     20670.32818576   -22386.47229538
  entropy T*S    EENTRO =         0.00000000
  eigenvalues    EBANDS =     -1083.92910929
  atomic energy  EATOM  =     22254.96935453
  Solvation  Ediel_sol  =         0.00000000
  ---------------------------------------------------
  free energy    TOTEN  =       -38.23363606 eV

  energy without entropy =      -38.23363606  energy(sigma->0) =      -38.23363606


--------------------------------------------------------------------------------------------------------




----------------------------------------- Iteration    1(  22)  ---------------------------------------


    POTLOK:  cpu time    1.3785: real time    1.3794
    SETDIJ:  cpu time    0.0165: real time    0.0165
     EDDAV:  cpu time   18.3799: real time   18.4250
       DOS:  cpu time    0.0002: real time    0.0002
    CHARGE:  cpu time    0.6623: real time    0.6628
    MIXING:  cpu time    0.1163: real time    0.1164
    --------------------------------------------
      LOOP:  cpu time   20.5574: real time   20.6068

 eigenvalue-minimisations  :   656
 total energy-change (2. order) :-0.8855364E+00  (-0.1534271E-01)
 number of electron     176.0000170 magnetization       6.1425491
 augmentation part      112.8672871 magnetization       6.1436571

 Broyden mixing:
  rms(total) = 0.71394E-01    rms(broyden)= 0.71384E-01
  rms(prec ) = 0.72773E-01
  weight for this iteration     100.00

 eigenvalues of (default mixing * dielectric matrix)
  average eigenvalue GAMMA=   1.5387
 10.4760  3.1590  1.7998  1.7998  1.3926  1.0513  1.0513  0.7140  0.7140  0.6780
  0.6780  0.5471  0.4259  0.4259  0.4521  0.3961  0.3961

 Free energy of the ion-electron system (eV)
  ---------------------------------------------------
  alpha Z        PSCENC =         6.93407324
  Ewald energy   TEWEN  =     40638.85965207
  -Hartree energ DENC   =    -60842.53554446
  -exchange      EXHF   =         0.00000000
  -V(xc)+E(xc)   XCENC  =       710.54011559
  PAW double counting   =     20663.26876419   -22379.93655429
  entropy T*S    EENTRO =         0.00000000
  eigenvalues    EBANDS =     -1091.21903338
  atomic energy  EATOM  =     22254.96935453
  Solvation  Ediel_sol  =         0.00000000
  ---------------------------------------------------
  free energy    TOTEN  =       -39.11917250 eV

  energy without entropy =      -39.11917250  energy(sigma->0) =      -39.11917250


--------------------------------------------------------------------------------------------------------




----------------------------------------- Iteration    1(  23)  ---------------------------------------


    POTLOK:  cpu time    1.3905: real time    1.3913
    SETDIJ:  cpu time    0.0163: real time    0.0163
     EDDAV:  cpu time   18.5030: real time   18.5450
       DOS:  cpu time    0.0002: real time    0.0002
    CHARGE:  cpu time    0.6622: real time    0.6627
    MIXING:  cpu time    0.1237: real time    0.1238
    --------------------------------------------
      LOOP:  cpu time   20.6997: real time   20.7459

 eigenvalue-minimisations  :   664
 total energy-change (2. order) :-0.5875750E+00  (-0.5561442E-02)
 number of electron     176.0000170 magnetization       5.0313148
 augmentation part      112.8611934 magnetization       5.0356133

 Broyden mixing:
  rms(total) = 0.50695E-01    rms(broyden)= 0.50688E-01
  rms(prec ) = 0.51726E-01
  weight for this iteration     100.00

 eigenvalues of (default mixing * dielectric matrix)
  average eigenvalue GAMMA=   1.5688
 10.7769  3.8147  1.9226  1.9226  1.3728  1.0864  1.0864  0.8537  0.7375  0.7375
  0.6357  0.6357  0.5616  0.4259  0.4259  0.4481  0.3973  0.3973

 Free energy of the ion-electron system (eV)
  ---------------------------------------------------
  alpha Z        PSCENC =         6.93407324
  Ewald energy   TEWEN  =     40638.85965207
  -Hartree energ DENC   =    -60837.41947226
  -exchange      EXHF   =         0.00000000
  -V(xc)+E(xc)   XCENC  =       709.95729074
  PAW double counting   =     20662.95847486   -22379.65312892
  entropy T*S    EENTRO =         0.00000000
  eigenvalues    EBANDS =     -1096.31299173
  atomic energy  EATOM  =     22254.96935453
  Solvation  Ediel_sol  =         0.00000000
  ---------------------------------------------------
  free energy    TOTEN  =       -39.70674747 eV

  energy without entropy =      -39.70674747  energy(sigma->0) =      -39.70674747


--------------------------------------------------------------------------------------------------------




----------------------------------------- Iteration    1(  24)  ---------------------------------------


    POTLOK:  cpu time    1.3792: real time    1.3807
    SETDIJ:  cpu time    0.0153: real time    0.0153
     EDDAV:  cpu time   19.7625: real time   19.8067
       DOS:  cpu time    0.0002: real time    0.0002
    CHARGE:  cpu time    0.6628: real time    0.6633
    MIXING:  cpu time    0.1327: real time    0.1327
    --------------------------------------------
      LOOP:  cpu time   21.9564: real time   22.0055

 eigenvalue-minimisations  :   720
 total energy-change (2. order) :-0.4898072E+00  (-0.2252042E-02)
 number of electron     176.0000170 magnetization       3.7740097
 augmentation part      112.8387420 magnetization       3.7603750

 Broyden mixing:
  rms(total) = 0.39981E-01    rms(broyden)= 0.39974E-01
  rms(prec ) = 0.40735E-01
  weight for this iteration     100.00

 eigenvalues of (default mixing * dielectric matrix)
  average eigenvalue GAMMA=   1.6143
 11.4580  4.3794  1.9115  1.9115  1.4882  1.4882  1.0364  1.0364  0.7217  0.7217
  0.6584  0.6584  0.6239  0.4246  0.4246  0.4789  0.4575  0.3959  0.3959

 Free energy of the ion-electron system (eV)
  ---------------------------------------------------
  alpha Z        PSCENC =         6.93407324
  Ewald energy   TEWEN  =     40638.85965207
  -Hartree energ DENC   =    -60831.76713288
  -exchange      EXHF   =         0.00000000
  -V(xc)+E(xc)   XCENC  =       709.45874666
  PAW double counting   =     20667.61826845   -22384.48766651
  entropy T*S    EENTRO =         0.00000000
  eigenvalues    EBANDS =     -1101.78185021
  atomic energy  EATOM  =     22254.96935453
  Solvation  Ediel_sol  =         0.00000000
  ---------------------------------------------------
  free energy    TOTEN  =       -40.19655466 eV

  energy without entropy =      -40.19655466  energy(sigma->0) =      -40.19655466


--------------------------------------------------------------------------------------------------------




----------------------------------------- Iteration    1(  25)  ---------------------------------------


    POTLOK:  cpu time    1.3778: real time    1.3787
    SETDIJ:  cpu time    0.0158: real time    0.0158
     EDDAV:  cpu time   20.0015: real time   20.0371
       DOS:  cpu time    0.0001: real time    0.0001
    CHARGE:  cpu time    0.6638: real time    0.6654
    MIXING:  cpu time    0.1479: real time    0.1481
    --------------------------------------------
      LOOP:  cpu time   22.2105: real time   22.2519

 eigenvalue-minimisations  :   728
 total energy-change (2. order) :-0.4796349E+00  (-0.1540130E-02)
 number of electron     176.0000170 magnetization       3.0258453
 augmentation part      112.8593730 magnetization       3.0331262

 Broyden mixing:
  rms(total) = 0.30196E-01    rms(broyden)= 0.30191E-01
  rms(prec ) = 0.30697E-01
  weight for this iteration     100.00

 eigenvalues of (default mixing * dielectric matrix)
  average eigenvalue GAMMA=   1.6462
 11.6623  5.0700  2.3026  1.9437  1.9437  1.0680  1.0680  0.9626  0.9626  0.7270
  0.7270  0.6689  0.6322  0.6322  0.4253  0.4253  0.3965  0.3965  0.4548  0.4548

 Free energy of the ion-electron system (eV)
  ---------------------------------------------------
  alpha Z        PSCENC =         6.93407324
  Ewald energy   TEWEN  =     40638.85965207
  -Hartree energ DENC   =    -60826.01767894
  -exchange      EXHF   =         0.00000000
  -V(xc)+E(xc)   XCENC  =       708.90356852
  PAW double counting   =     20668.58872019   -22385.17611599
  entropy T*S    EENTRO =         0.00000000
  eigenvalues    EBANDS =     -1107.73776312
  atomic energy  EATOM  =     22254.96935453
  Solvation  Ediel_sol  =         0.00000000
  ---------------------------------------------------
  free energy    TOTEN  =       -40.67618951 eV

  energy without entropy =      -40.67618951  energy(sigma->0) =      -40.67618951


--------------------------------------------------------------------------------------------------------




----------------------------------------- Iteration    1(  26)  ---------------------------------------


    POTLOK:  cpu time    1.3776: real time    1.3791
    SETDIJ:  cpu time    0.0162: real time    0.0162
     EDDAV:  cpu time   20.1246: real time   20.1662
       DOS:  cpu time    0.0002: real time    0.0002
    CHARGE:  cpu time    0.6613: real time    0.6617
    MIXING:  cpu time    0.1576: real time    0.1578
    --------------------------------------------
      LOOP:  cpu time   22.3413: real time   22.3882

 eigenvalue-minimisations  :   736
 total energy-change (2. order) :-0.3223190E+00  (-0.5767990E-03)
 number of electron     176.0000170 magnetization       2.2805256
 augmentation part      112.8585529 magnetization       2.2713417

 Broyden mixing:
  rms(total) = 0.23867E-01    rms(broyden)= 0.23864E-01
  rms(prec ) = 0.24212E-01
  weight for this iteration     100.00

 eigenvalues of (default mixing * dielectric matrix)
  average eigenvalue GAMMA=   1.6807
 11.8742  5.7630  2.3447  2.3447  1.6183  1.6183  1.0403  1.0403  1.0178  0.7204
  0.7204  0.7237  0.7237  0.6016  0.6016  0.4254  0.4254  0.3965  0.3965  0.4491
  0.4491

 Free energy of the ion-electron system (eV)
  ---------------------------------------------------
  alpha Z        PSCENC =         6.93407324
  Ewald energy   TEWEN  =     40638.85965207
  -Hartree energ DENC   =    -60822.21736183
  -exchange      EXHF   =         0.00000000
  -V(xc)+E(xc)   XCENC  =       708.56345803
  PAW double counting   =     20672.80964467   -22389.36435035
  entropy T*S    EENTRO =         0.00000000
  eigenvalues    EBANDS =     -1111.55297891
  atomic energy  EATOM  =     22254.96935453
  Solvation  Ediel_sol  =         0.00000000
  ---------------------------------------------------
  free energy    TOTEN  =       -40.99850855 eV

  energy without entropy =      -40.99850855  energy(sigma->0) =      -40.99850855


--------------------------------------------------------------------------------------------------------




----------------------------------------- Iteration    1(  27)  ---------------------------------------


    POTLOK:  cpu time    1.3790: real time    1.3815
    SETDIJ:  cpu time    0.0160: real time    0.0160
     EDDAV:  cpu time   20.8116: real time   20.8624
       DOS:  cpu time    0.0002: real time    0.0002
    CHARGE:  cpu time    0.6604: real time    0.6609
    MIXING:  cpu time    0.1640: real time    0.1640
    --------------------------------------------
      LOOP:  cpu time   23.0347: real time   23.0911

 eigenvalue-minimisations  :   768
 total energy-change (2. order) :-0.2536853E+00  (-0.3748403E-03)
 number of electron     176.0000170 magnetization       1.5267923
 augmentation part      112.8654306 magnetization       1.5195727

 Broyden mixing:
  rms(total) = 0.18409E-01    rms(broyden)= 0.18407E-01
  rms(prec ) = 0.18731E-01
  weight for this iteration     100.00

 eigenvalues of (default mixing * dielectric matrix)
  average eigenvalue GAMMA=   1.7292
 12.1942  6.6503  3.1355  1.8499  1.8499  1.6422  1.1808  1.0459  1.0459  0.8076
  0.8076  0.7231  0.7231  0.6432  0.6432  0.5582  0.4254  0.4254  0.3961  0.3961
  0.4490  0.4490

 Free energy of the ion-electron system (eV)
  ---------------------------------------------------
  alpha Z        PSCENC =         6.93407324
  Ewald energy   TEWEN  =     40638.85965207
  -Hartree energ DENC   =    -60819.31276874
  -exchange      EXHF   =         0.00000000
  -V(xc)+E(xc)   XCENC  =       708.29227449
  PAW double counting   =     20674.50230117   -22390.86883013
  entropy T*S    EENTRO =         0.00000000
  eigenvalues    EBANDS =     -1114.62825050
  atomic energy  EATOM  =     22254.96935453
  Solvation  Ediel_sol  =         0.00000000
  ---------------------------------------------------
  free energy    TOTEN  =       -41.25219387 eV

  energy without entropy =      -41.25219387  energy(sigma->0) =      -41.25219387


--------------------------------------------------------------------------------------------------------




----------------------------------------- Iteration    1(  28)  ---------------------------------------


    POTLOK:  cpu time    1.3751: real time    1.3764
    SETDIJ:  cpu time    0.0158: real time    0.0158
     EDDAV:  cpu time   20.4984: real time   20.5399
       DOS:  cpu time    0.0002: real time    0.0002
    CHARGE:  cpu time    0.6610: real time    0.6614
    MIXING:  cpu time    0.1749: real time    0.1750
    --------------------------------------------
      LOOP:  cpu time   22.7301: real time   22.7764

 eigenvalue-minimisations  :   752
 total energy-change (2. order) :-0.2446006E+00  (-0.1684836E-03)
 number of electron     176.0000170 magnetization       0.9866289
 augmentation part      112.8623555 magnetization       0.9811508

 Broyden mixing:
  rms(total) = 0.12991E-01    rms(broyden)= 0.12989E-01
  rms(prec ) = 0.13272E-01
  weight for this iteration     100.00

 eigenvalues of (default mixing * dielectric matrix)
  average eigenvalue GAMMA=   1.7856
 12.6413  7.5438  3.5682  2.0029  2.0029  1.5098  1.5098  1.0446  1.0446  0.7203
  0.7203  0.8335  0.8335  0.8084  0.6106  0.6106  0.4254  0.4254  0.5213  0.3962
  0.3962  0.4498  0.4498

 Free energy of the ion-electron system (eV)
  ---------------------------------------------------
  alpha Z        PSCENC =         6.93407324
  Ewald energy   TEWEN  =     40638.85965207
  -Hartree energ DENC   =    -60817.63704997
  -exchange      EXHF   =         0.00000000
  -V(xc)+E(xc)   XCENC  =       708.05138971
  PAW double counting   =     20677.38482424   -22393.75975788
  entropy T*S    EENTRO =         0.00000000
  eigenvalues    EBANDS =     -1116.29928043
  atomic energy  EATOM  =     22254.96935453
  Solvation  Ediel_sol  =         0.00000000
  ---------------------------------------------------
  free energy    TOTEN  =       -41.49679449 eV

  energy without entropy =      -41.49679449  energy(sigma->0) =      -41.49679449


--------------------------------------------------------------------------------------------------------




----------------------------------------- Iteration    1(  29)  ---------------------------------------


    POTLOK:  cpu time    1.3767: real time    1.3796
    SETDIJ:  cpu time    0.0157: real time    0.0157
     EDDAV:  cpu time   20.7098: real time   21.2709
       DOS:  cpu time    0.0002: real time    0.0002
    CHARGE:  cpu time    0.6616: real time    0.6626
    MIXING:  cpu time    0.1828: real time    0.1828
    --------------------------------------------
      LOOP:  cpu time   22.9503: real time   23.5179

 eigenvalue-minimisations  :   768
 total energy-change (2. order) :-0.1307383E+00  (-0.9517963E-04)
 number of electron     176.0000170 magnetization       0.6559892
 augmentation part      112.8587265 magnetization       0.6528327

 Broyden mixing:
  rms(total) = 0.89336E-02    rms(broyden)= 0.89325E-02
  rms(prec ) = 0.91262E-02
  weight for this iteration     100.00

 eigenvalues of (default mixing * dielectric matrix)
  average eigenvalue GAMMA=   1.8279
 12.9750  8.3956  3.9026  2.2273  1.8037  1.8037  1.3569  1.3569  1.0368  1.0368
  0.7225  0.7225  0.7918  0.7918  0.6595  0.6185  0.6185  0.4254  0.4254  0.3962
  0.3962  0.5069  0.4493  0.4493

 Free energy of the ion-electron system (eV)
  ---------------------------------------------------
  alpha Z        PSCENC =         6.93407324
  Ewald energy   TEWEN  =     40638.85965207
  -Hartree energ DENC   =    -60816.84607394
  -exchange      EXHF   =         0.00000000
  -V(xc)+E(xc)   XCENC  =       707.92279707
  PAW double counting   =     20678.00996037   -22394.44786234
  entropy T*S    EENTRO =         0.00000000
  eigenvalues    EBANDS =     -1117.02943383
  atomic energy  EATOM  =     22254.96935453
  Solvation  Ediel_sol  =         0.00000000
  ---------------------------------------------------
  free energy    TOTEN  =       -41.62753282 eV

  energy without entropy =      -41.62753282  energy(sigma->0) =      -41.62753282


--------------------------------------------------------------------------------------------------------




----------------------------------------- Iteration    1(  30)  ---------------------------------------


    POTLOK:  cpu time    1.3764: real time    1.3775
    SETDIJ:  cpu time    0.0162: real time    0.0162
     EDDAV:  cpu time   21.5392: real time   21.5889
       DOS:  cpu time    0.0002: real time    0.0002
    CHARGE:  cpu time    0.6588: real time    0.6593
    MIXING:  cpu time    0.1925: real time    0.1925
    --------------------------------------------
      LOOP:  cpu time   23.7870: real time   23.8410

 eigenvalue-minimisations  :   800
 total energy-change (2. order) :-0.5724695E-01  (-0.4804318E-04)
 number of electron     176.0000170 magnetization       0.4206450
 augmentation part      112.8621745 magnetization       0.4203120

 Broyden mixing:
  rms(total) = 0.66685E-02    rms(broyden)= 0.66676E-02
  rms(prec ) = 0.68133E-02
  weight for this iteration     100.00

 eigenvalues of (default mixing * dielectric matrix)
  average eigenvalue GAMMA=   1.8728
 13.1454  9.3119  4.1825  2.5912  1.7980  1.7980  1.6661  1.3848  1.0422  1.0422
  0.8847  0.8847  0.7203  0.7203  0.7679  0.6290  0.6290  0.5684  0.4254  0.4254
  0.3962  0.3962  0.5123  0.4494  0.4494

 Free energy of the ion-electron system (eV)
  ---------------------------------------------------
  alpha Z        PSCENC =         6.93407324
  Ewald energy   TEWEN  =     40638.85965207
  -Hartree energ DENC   =    -60816.27680224
  -exchange      EXHF   =         0.00000000
  -V(xc)+E(xc)   XCENC  =       707.85921546
  PAW double counting   =     20676.39189308   -22392.82561803
  entropy T*S    EENTRO =         0.00000000
  eigenvalues    EBANDS =     -1117.59654787
  atomic energy  EATOM  =     22254.96935453
  Solvation  Ediel_sol  =         0.00000000
  ---------------------------------------------------
  free energy    TOTEN  =       -41.68477976 eV

  energy without entropy =      -41.68477976  energy(sigma->0) =      -41.68477976


--------------------------------------------------------------------------------------------------------




----------------------------------------- Iteration    1(  31)  ---------------------------------------


    POTLOK:  cpu time    1.3888: real time    1.3918
    SETDIJ:  cpu time    0.0149: real time    0.0149
     EDDAV:  cpu time   22.2546: real time   22.3013
       DOS:  cpu time    0.0002: real time    0.0002
    CHARGE:  cpu time    0.6641: real time    0.6646
    MIXING:  cpu time    0.2054: real time    0.2054
    --------------------------------------------
      LOOP:  cpu time   24.5318: real time   24.5848

 eigenvalue-minimisations  :   832
 total energy-change (2. order) :-0.5316319E-01  (-0.2713060E-04)
 number of electron     176.0000170 magnetization       0.2649164
 augmentation part      112.8637784 magnetization       0.2632790

 Broyden mixing:
  rms(total) = 0.50160E-02    rms(broyden)= 0.50153E-02
  rms(prec ) = 0.52036E-02
  weight for this iteration     100.00

 eigenvalues of (default mixing * dielectric matrix)
  average eigenvalue GAMMA=   1.9151
 13.6386  9.7957  4.7041  2.8400  2.1246  1.7987  1.7987  1.1978  1.1978  1.0379
  1.0379  0.8336  0.8336  0.7218  0.7218  0.6704  0.6294  0.6294  0.4254  0.4254
  0.3962  0.3962  0.5198  0.5198  0.4493  0.4493

 Free energy of the ion-electron system (eV)
  ---------------------------------------------------
  alpha Z        PSCENC =         6.93407324
  Ewald energy   TEWEN  =     40638.85965207
  -Hartree energ DENC   =    -60816.21968996
  -exchange      EXHF   =         0.00000000
  -V(xc)+E(xc)   XCENC  =       707.80750702
  PAW double counting   =     20675.42759582   -22391.86505586
  entropy T*S    EENTRO =         0.00000000
  eigenvalues    EBANDS =     -1117.65137980
  atomic energy  EATOM  =     22254.96935453
  Solvation  Ediel_sol  =         0.00000000
  ---------------------------------------------------
  free energy    TOTEN  =       -41.73794295 eV

  energy without entropy =      -41.73794295  energy(sigma->0) =      -41.73794295


--------------------------------------------------------------------------------------------------------




----------------------------------------- Iteration    1(  32)  ---------------------------------------


    POTLOK:  cpu time    1.3739: real time    1.3798
    SETDIJ:  cpu time    0.0172: real time    0.0172
     EDDAV:  cpu time   21.0348: real time   21.0709
       DOS:  cpu time    0.0002: real time    0.0001
    CHARGE:  cpu time    0.6640: real time    0.6661
    MIXING:  cpu time    0.2124: real time    0.2125
    --------------------------------------------
      LOOP:  cpu time   23.3063: real time   23.3536

 eigenvalue-minimisations  :   776
 total energy-change (2. order) :-0.3378033E-01  (-0.1646860E-04)
 number of electron     176.0000170 magnetization       0.1500683
 augmentation part      112.8608650 magnetization       0.1481915

 Broyden mixing:
  rms(total) = 0.33728E-02    rms(broyden)= 0.33725E-02
  rms(prec ) = 0.34888E-02
  weight for this iteration     100.00

 eigenvalues of (default mixing * dielectric matrix)
  average eigenvalue GAMMA=   1.9325
 14.0262  9.9482  5.2444  3.0262  2.0174  2.0174  1.5654  1.5654  1.2656  1.0360
  1.0360  0.8873  0.8873  0.7210  0.7210  0.7614  0.6352  0.6352  0.6081  0.4254
  0.4254  0.3962  0.3962  0.5163  0.5163  0.4494  0.4494

 Free energy of the ion-electron system (eV)
  ---------------------------------------------------
  alpha Z        PSCENC =         6.93407324
  Ewald energy   TEWEN  =     40638.85965207
  -Hartree energ DENC   =    -60816.57913590
  -exchange      EXHF   =         0.00000000
  -V(xc)+E(xc)   XCENC  =       707.78298408
  PAW double counting   =     20675.33873285   -22391.81739993
  entropy T*S    EENTRO =         0.00000000
  eigenvalues    EBANDS =     -1117.25998422
  atomic energy  EATOM  =     22254.96935453
  Solvation  Ediel_sol  =         0.00000000
  ---------------------------------------------------
  free energy    TOTEN  =       -41.77172328 eV

  energy without entropy =      -41.77172328  energy(sigma->0) =      -41.77172328


--------------------------------------------------------------------------------------------------------




----------------------------------------- Iteration    1(  33)  ---------------------------------------


    POTLOK:  cpu time    1.3740: real time    1.3801
    SETDIJ:  cpu time    0.0170: real time    0.0170
     EDDAV:  cpu time   20.2658: real time   20.3027
       DOS:  cpu time    0.0001: real time    0.0001
[...]
 total charge-density along one line
 
 soft charge-density along one line, spin component           2
         0         1         2         3         4         5         6         7         8         9
 total charge-density along one line
 
 pseudopotential strength for first ion, spin component:           1
-10.775  -0.004   0.017   0.004   0.002   1.212   0.003  -0.012
 -0.004 -10.803   0.005  -0.007  -0.010   0.003   1.234  -0.004
  0.017   0.005 -10.802  -0.003  -0.018  -0.012  -0.004   1.234
  0.004  -0.007  -0.003 -10.785  -0.001  -0.003   0.004   0.002
  0.002  -0.010  -0.018  -0.001 -10.788  -0.002   0.007   0.013
  1.212   0.003  -0.012  -0.003  -0.002   6.157  -0.002   0.006
  0.003   1.234  -0.004   0.004   0.007  -0.002   6.141   0.002
 -0.012  -0.004   1.234   0.002   0.013   0.006   0.002   6.139
 -0.003   0.004   0.002   1.221  -0.000   0.002  -0.001  -0.001
 -0.002   0.007   0.013  -0.000   1.221   0.002  -0.006  -0.009
  0.001  -0.001   0.004  -0.001  -0.002   0.003   0.001  -0.003
  0.002  -0.002   0.007  -0.002  -0.003   0.007   0.001  -0.005
  0.013   0.001  -0.009  -0.000  -0.015  -0.009  -0.002   0.005
 -0.000   0.016   0.001   0.014  -0.000   0.001  -0.011  -0.001
  0.016  -0.000  -0.007   0.001   0.014  -0.011   0.001   0.005
  0.015   0.002  -0.009  -0.000  -0.016  -0.009  -0.002   0.005
 -0.000   0.017   0.002   0.016  -0.000   0.001  -0.011  -0.002
  0.017  -0.000  -0.008   0.001   0.015  -0.011   0.001   0.004
 pseudopotential strength for first ion, spin component:           2
-10.775  -0.004   0.017   0.004   0.002   1.212   0.003  -0.012
 -0.004 -10.803   0.005  -0.007  -0.010   0.003   1.234  -0.004
  0.017   0.005 -10.802  -0.003  -0.018  -0.012  -0.004   1.234
  0.004  -0.007  -0.003 -10.785  -0.001  -0.003   0.004   0.002
  0.002  -0.010  -0.018  -0.001 -10.788  -0.002   0.007   0.013
  1.212   0.003  -0.012  -0.003  -0.002   6.157  -0.002   0.006
  0.003   1.234  -0.004   0.004   0.007  -0.002   6.141   0.002
 -0.012  -0.004   1.234   0.002   0.013   0.006   0.002   6.139
 -0.003   0.004   0.002   1.221  -0.000   0.002  -0.001  -0.001
 -0.002   0.007   0.013  -0.000   1.221   0.002  -0.006  -0.009
  0.001  -0.001   0.004  -0.001  -0.002   0.003   0.001  -0.003
  0.002  -0.002   0.007  -0.002  -0.003   0.007   0.001  -0.005
  0.013   0.001  -0.009  -0.000  -0.015  -0.009  -0.002   0.005
 -0.000   0.016   0.001   0.014  -0.000   0.001  -0.011  -0.001
  0.016  -0.000  -0.007   0.001   0.014  -0.011   0.001   0.005
  0.015   0.002  -0.009  -0.000  -0.016  -0.009  -0.002   0.005
 -0.000   0.017   0.002   0.016  -0.000   0.001  -0.011  -0.002
  0.017  -0.000  -0.008   0.001   0.015  -0.011   0.001   0.004
 total augmentation occupancy for first ion, spin component:           1
  1.955  -0.003   0.005  -0.002   0.006  -0.025  -0.000  -0.007   0.003  -0.001  -0.018   0.002  -0.037  -0.011  -0.044   0.018
 -0.003   1.948  -0.000   0.010  -0.007  -0.000  -0.016  -0.001  -0.000   0.002   0.008  -0.003   0.005  -0.063  -0.005   0.000
  0.005  -0.000   1.931   0.002  -0.006  -0.007  -0.001  -0.013   0.001   0.005   0.003  -0.008   0.035   0.002   0.027  -0.015
 -0.002   0.010   0.002   1.940   0.008   0.003  -0.000   0.001  -0.011  -0.002  -0.001   0.005  -0.000  -0.025  -0.006  -0.000
  0.006  -0.007  -0.006   0.008   1.942  -0.001   0.002   0.005  -0.002  -0.013   0.000  -0.004   0.068  -0.011  -0.043  -0.028
 -0.025  -0.000  -0.007   0.003  -0.001   0.008  -0.001  -0.002   0.000   0.001   0.027  -0.004  -0.009   0.005  -0.021   0.001
 -0.000  -0.016  -0.001  -0.000   0.002  -0.001   0.012   0.000   0.003  -0.001   0.001  -0.001  -0.003  -0.031   0.003   0.000
 -0.007  -0.001  -0.013   0.001   0.005  -0.002   0.000   0.008  -0.001  -0.000   0.015   0.000   0.004   0.000   0.007  -0.000
  0.003  -0.000   0.001  -0.011  -0.002   0.000   0.003  -0.001   0.007   0.001  -0.005   0.000   0.001  -0.015  -0.002  -0.000
 -0.001   0.002   0.005  -0.002  -0.013   0.001  -0.001  -0.000   0.001   0.010  -0.006   0.002   0.020   0.002  -0.016  -0.001
 -0.018   0.008   0.003  -0.001   0.000   0.027   0.001   0.015  -0.005  -0.006   1.697  -0.104  -0.229  -0.006  -0.151   0.029
  0.002  -0.003  -0.008   0.005  -0.004  -0.004  -0.001   0.000   0.000   0.002  -0.104   0.013   0.028   0.002   0.016  -0.003
 -0.037   0.005   0.035  -0.000   0.068  -0.009  -0.003   0.004   0.001   0.020  -0.229   0.028   0.100   0.009   0.005  -0.010
 -0.011  -0.063   0.002  -0.025  -0.011   0.005  -0.031   0.000  -0.015   0.002  -0.006   0.002   0.009   0.138  -0.021  -0.000
 -0.044  -0.005   0.027  -0.006  -0.043  -0.021   0.003   0.007  -0.002  -0.016  -0.151   0.016   0.005  -0.021   0.105  -0.002
  0.018   0.000  -0.015  -0.000  -0.028   0.001   0.000  -0.000  -0.000  -0.001   0.029  -0.003  -0.010  -0.000  -0.002   0.001
 -0.000   0.028   0.001   0.019   0.000  -0.000   0.002   0.000   0.001  -0.000   0.001  -0.000  -0.000  -0.008   0.000   0.000
  0.026  -0.000  -0.011   0.001   0.019   0.001  -0.000  -0.000   0.000   0.001   0.019  -0.002  -0.003   0.000  -0.007   0.000
 total augmentation occupancy for first ion, spin component:           2
 -0.000   0.000   0.000   0.000  -0.000  -0.000   0.000   0.000   0.000  -0.000   0.000  -0.000   0.000  -0.000  -0.000  -0.000
  0.000  -0.000  -0.000   0.000  -0.000   0.000  -0.000   0.000   0.000   0.000  -0.000   0.000  -0.000  -0.000  -0.000   0.000
  0.000  -0.000   0.000   0.000  -0.000   0.000  -0.000   0.000   0.000  -0.000  -0.000   0.000  -0.000   0.000   0.000   0.000
  0.000   0.000   0.000  -0.000  -0.000   0.000   0.000   0.000  -0.000  -0.000   0.000  -0.000  -0.000   0.000  -0.000   0.000
 -0.000  -0.000  -0.000  -0.000   0.000  -0.000   0.000  -0.000  -0.000   0.000  -0.000   0.000  -0.000  -0.000  -0.000   0.000
 -0.000   0.000   0.000   0.000  -0.000   0.000   0.000  -0.000  -0.000  -0.000   0.000   0.000   0.000  -0.000   0.000  -0.000
  0.000  -0.000  -0.000   0.000   0.000   0.000   0.000  -0.000   0.000  -0.000   0.000  -0.000  -0.000   0.000  -0.000   0.000
  0.000   0.000   0.000   0.000  -0.000  -0.000  -0.000  -0.000  -0.000   0.000   0.000  -0.000   0.000  -0.000  -0.000  -0.000
  0.000   0.000   0.000  -0.000  -0.000  -0.000   0.000  -0.000   0.000  -0.000  -0.000  -0.000   0.000  -0.000   0.000  -0.000
 -0.000   0.000  -0.000  -0.000   0.000  -0.000  -0.000   0.000  -0.000  -0.000  -0.000   0.000   0.000   0.000   0.000  -0.000
  0.000  -0.000  -0.000   0.000  -0.000   0.000   0.000   0.000  -0.000  -0.000   0.000  -0.000   0.000   0.000  -0.000   0.000
 -0.000   0.000   0.000  -0.000   0.000   0.000  -0.000  -0.000  -0.000   0.000  -0.000  -0.000   0.000   0.000   0.000  -0.000
  0.000  -0.000  -0.000  -0.000  -0.000   0.000  -0.000   0.000   0.000   0.000   0.000   0.000  -0.000   0.000  -0.000   0.000
 -0.000  -0.000   0.000   0.000  -0.000  -0.000   0.000  -0.000  -0.000   0.000   0.000   0.000   0.000   0.000   0.000  -0.000
 -0.000  -0.000   0.000  -0.000  -0.000   0.000  -0.000  -0.000   0.000   0.000  -0.000   0.000  -0.000   0.000   0.000   0.000
 -0.000   0.000   0.000   0.000   0.000  -0.000   0.000  -0.000  -0.000  -0.000   0.000  -0.000   0.000  -0.000   0.000  -0.000
  0.000   0.000  -0.000  -0.000   0.000   0.000  -0.000   0.000  -0.000  -0.000   0.000   0.000  -0.000  -0.000  -0.000   0.000
  0.000   0.000  -0.000   0.000   0.000  -0.000   0.000   0.000  -0.000  -0.000  -0.000  -0.000   0.000  -0.000  -0.000  -0.000


------------------------ aborting loop because EDIFF is reached ----------------------------------------


 


 total charge     
 
# of ion     s       p       d       tot
----------------------------------------
  1        0.481   0.181   9.253   9.915
  2        0.450   0.205   9.262   9.917
  3        0.463   0.274   9.222   9.959
  4        0.445   0.251   9.245   9.941
  5        0.435   0.347   9.214   9.996
  6        0.483   0.181   9.253   9.917
  7        0.463   0.156   9.289   9.908
  8        0.476   0.142   9.283   9.901
  9        0.479   0.220   9.231   9.930
 10        0.451   0.205   9.262   9.917
 11        0.480   0.139   9.270   9.889
 12        0.422   0.292   9.226   9.940
 13        0.423   0.295   9.227   9.945
 14        0.489   0.219   9.222   9.930
 15        0.464   0.278   9.221   9.963
 16        0.492   0.140   9.265   9.896
------------------------------------------------
tot        7.395   3.523 147.945 158.863
 


 magnetization (x)
 
# of ion     s       p       d       tot
----------------------------------------
  1        0.000   0.000  -0.000  -0.000
  2        0.000   0.000  -0.000  -0.000
  3       -0.000  -0.000  -0.000  -0.000
  4       -0.000   0.000  -0.000  -0.000
  5        0.000  -0.000   0.000  -0.000
  6       -0.000   0.000  -0.000  -0.000
  7        0.000  -0.000  -0.000  -0.000
  8       -0.000  -0.000  -0.000  -0.000
  9        0.000  -0.000  -0.000  -0.000
 10        0.000   0.000  -0.000   0.000
 11       -0.000  -0.000  -0.000  -0.000
 12       -0.000   0.000  -0.000  -0.000
 13        0.000  -0.000  -0.000  -0.000
 14       -0.000  -0.000  -0.000  -0.000
 15       -0.000   0.000  -0.000  -0.000
 16       -0.000  -0.000  -0.000  -0.000
------------------------------------------------
tot       -0.000  -0.000  -0.000  -0.000
 
    CHARGE:  cpu time    0.6586: real time    0.6590
    FORLOC:  cpu time    0.0639: real time    0.0640
    FORNL :  cpu time    4.8722: real time    4.8810
    STRESS:  cpu time   17.1915: real time   17.2246
    FORCOR:  cpu time    1.3720: real time    1.3791
    FORHAR:  cpu time    0.2068: real time    0.2070
    MIXING:  cpu time    0.0467: real time    0.0467
    OFIELD:  cpu time    0.0001: real time    0.0001

  FORCE on cell =-STRESS in cart. coord.  units (eV):
  Direction    XX          YY          ZZ          XY          YZ          ZX
  --------------------------------------------------------------------------------------
  Alpha Z     6.93407     6.93407     6.93407
  Ewald   12712.19926 11467.68754 16345.25307   959.21121 -3715.97670 -3281.85159
  Hartree 19503.98736 18397.70889 22802.95006   873.11538 -3336.32831 -2955.02111
  E(xc)   -1026.74854 -1027.09091 -1026.25255     0.11183    -0.68681    -0.57966
  Local  -33768.07838-31418.18422-40692.68180 -1830.31132  7045.84012  6231.58959
  n-local  -379.71356  -380.29974  -378.48680     0.18381    -1.57021    -1.21519
  augment  1503.02196  1504.13236  1499.02267    -0.92819     4.09144     3.26373
  Kinetic  1444.07326  1444.91860  1439.26750    -1.31842     4.49937     3.72827
  Fock        0.00000     0.00000     0.00000     0.00000     0.00000     0.00000
  -------------------------------------------------------------------------------------
  Total      -4.32456    -4.19341    -3.99377     0.06428    -0.13111    -0.08595
  in kB      -0.25662    -0.24884    -0.23699     0.00381    -0.00778    -0.00510
  external pressure =       -0.25 kB  Pullay stress =        0.00 kB


 VOLUME and BASIS-vectors are now :
 -----------------------------------------------------------------------------
  energy-cutoff  :      295.45
  volume of cell :    27000.00
      direct lattice vectors                 reciprocal lattice vectors
    30.000000000  0.000000000  0.000000000     0.033333333  0.000000000  0.000000000
     0.000000000 30.000000000  0.000000000     0.000000000  0.033333333  0.000000000
     0.000000000  0.000000000 30.000000000     0.000000000  0.000000000  0.033333333

  length of vectors
    30.000000000 30.000000000 30.000000000     0.033333333  0.033333333  0.033333333


 FORCES acting on ions
    electron-ion (+dipol)            ewald-force                    non-local-force                 convergence-correction
 -----------------------------------------------------------------------------------------------
   -.908E+03 -.127E+04 0.589E+02   0.902E+03 0.126E+04 -.588E+02   0.530E+01 0.712E+01 -.919E-01   -.529E-02 0.659E-03 0.322E-02
   -.253E+03 0.144E+04 0.533E+03   0.248E+03 -.143E+04 -.529E+03   0.447E+01 -.896E+01 -.350E+01   -.390E-02 0.551E-02 -.644E-02
   0.681E+03 0.116E+04 -.555E+02   -.680E+03 -.116E+04 0.541E+02   -.132E+01 -.110E+01 0.139E+01   0.264E-02 0.101E-01 -.102E-01
   0.199E+03 -.919E+03 0.115E+04   -.200E+03 0.916E+03 -.115E+04   0.839E+00 0.295E+01 -.463E+01   -.103E-01 -.801E-03 0.352E-02
   -.101E+04 0.276E+03 0.182E+03   0.101E+04 -.276E+03 -.182E+03   -.182E+01 0.691E+00 -.282E-01   -.102E-01 -.688E-03 0.500E-02
   -.113E+03 0.620E+03 0.143E+04   0.113E+03 -.616E+03 -.142E+04   0.579E+00 -.378E+01 -.802E+01   -.667E-02 -.390E-03 0.103E-01
   0.109E+04 0.301E+03 -.100E+04   -.108E+04 -.299E+03 0.993E+03   -.816E+01 -.237E+01 0.765E+01   0.963E-02 0.723E-02 -.614E-02
   -.175E+03 0.907E+03 -.119E+04   0.173E+03 -.901E+03 0.118E+04   0.175E+01 -.630E+01 0.814E+01   0.646E-02 -.749E-02 -.328E-02
   -.106E+04 0.831E+03 -.569E+03   0.106E+04 -.829E+03 0.568E+03   0.325E+01 -.201E+01 0.108E+01   -.135E-02 -.984E-02 -.312E-02
   -.107E+04 -.615E+03 -.953E+03   0.106E+04 0.613E+03 0.948E+03   0.902E+01 0.242E+01 0.492E+01   0.144E-02 0.688E-02 -.356E-02
   -.112E+04 -.252E+03 0.997E+03   0.111E+04 0.250E+03 -.991E+03   0.632E+01 0.182E+01 -.634E+01   -.482E-02 -.626E-02 0.176E-01
   0.256E+03 -.122E+04 -.399E+03   -.253E+03 0.122E+04 0.398E+03   -.287E+01 0.308E+01 0.123E+01   0.789E-04 -.714E-02 -.162E-02
   0.920E+03 0.442E+03 0.786E+03   -.916E+03 -.442E+03 -.785E+03   -.400E+01 -.206E+00 -.991E+00   -.119E-02 0.604E-02 0.495E-02
   0.137E+04 -.330E+03 -.300E+03   -.137E+04 0.329E+03 0.299E+03   -.463E+01 0.761E+00 0.135E+01   0.318E-02 -.357E-03 0.426E-02
   0.358E+02 -.497E+03 -.124E+04   -.347E+02 0.498E+03 0.123E+04   -.111E+01 -.533E+00 0.169E+01   0.632E-02 0.140E-02 -.576E-02
   0.115E+04 -.876E+03 0.573E+03   -.114E+04 0.870E+03 -.567E+03   -.691E+01 0.685E+01 -.582E+01   -.277E-02 -.294E-02 0.508E-02
 -----------------------------------------------------------------------------------------------
   -.756E+00 -.572E+00 0.185E+01   -.227E-12 0.455E-12 -.341E-12   0.707E+00 0.430E+00 -.197E+01   -.168E-01 0.189E-02 0.137E-01
 
 
 POSITION                                       TOTAL-FORCE (eV/Angst)
 -----------------------------------------------------------------------------------
     10.64400     11.02995      8.12020        -0.000789      0.000945      0.003028
      9.18286      6.49206      7.87756         0.006273     -0.008977      0.020176
      7.64507      6.90730      9.64585         0.003992     -0.005967      0.007638
      8.84000     10.25228      6.64968         0.015938     -0.008610      0.004888
     10.21969      8.64898      8.08372        -0.007614      0.005501     -0.019454
      9.35916      7.96878      5.91083         0.004756      0.000026     -0.005975
      6.40504      7.66342     11.53124        -0.021756      0.002142      0.003591
      8.60078      6.60446     11.86809        -0.013408      0.009317      0.007350
     10.07333      7.26658     10.08791         0.005927      0.009450      0.013761
     10.46529      9.74389     10.21664         0.000247     -0.010669      0.011843
     11.21113      9.60085      6.16793        -0.004165      0.011074     -0.014369
      8.43769     10.40276      9.06965         0.001623      0.007268      0.006155
      7.61856      8.33581      7.60745         0.005804     -0.016475     -0.005637
      6.35863      9.11029      9.59045         0.001874     -0.003233     -0.011616
      8.40641      8.87064     11.03086        -0.003515      0.004724     -0.005606
      6.51757     10.49027      7.61038         0.004811      0.003483     -0.015774
 -----------------------------------------------------------------------------------
    total drift:                               -0.066087     -0.139394     -0.105563


--------------------------------------------------------------------------------------------------------



  FREE ENERGIE OF THE ION-ELECTRON SYSTEM (eV)
  ---------------------------------------------------
  free  energy   TOTEN  =       -41.83285699 eV

  energy  without entropy=      -41.83285699  energy(sigma->0) =      -41.83285699
 
 d Force = 0.7706544E-03[ 0.500E-03, 0.104E-02]  d Energy = 0.7608551E-03 0.980E-05
 d Force = 0.2208143E+02[ 0.221E+02, 0.221E+02]  d Ewald  = 0.2208143E+02-0.225E-05


--------------------------------------------------------------------------------------------------------


    POTLOK:  cpu time    1.3999: real time    1.4004


--------------------------------------------------------------------------------------------------------


 Conjugate gradient step on ions:
 trial-energy change:   -0.000761  1 .order   -0.000771   -0.001041   -0.000500
  (g-gl).g = 0.262E-03      g.g   = 0.524E-03  gl.gl    = 0.151E-02
 g(Force)  = 0.524E-03   g(Stress)= 0.000E+00 ortho     = 0.591E-04
 gamma     =   0.17375
 trial     =   1.94944
 opt step  =   4.32826  (harmonic =   3.75382) maximal distance =0.00682003
 next E    =   -41.833144   (d E  =  -0.00105)


--------------------------------------------------------------------------------------------------------


  
 reached required accuracy - stopping structural energy minimisation
     LOOP+:  cpu time  172.8988: real time  173.2576
    4ORBIT:  cpu time    0.0000: real time    0.0000
 


 total charge     
 
# of ion     s       p       d       tot
----------------------------------------
  1        0.481   0.181   9.253   9.915
  2        0.450   0.205   9.262   9.917
  3        0.463   0.274   9.222   9.959
  4        0.445   0.251   9.245   9.941
  5        0.435   0.347   9.214   9.996
  6        0.483   0.181   9.253   9.917
  7        0.463   0.156   9.289   9.908
  8        0.476   0.142   9.283   9.901
  9        0.479   0.220   9.231   9.930
 10        0.451   0.205   9.262   9.917
 11        0.480   0.139   9.270   9.889
 12        0.422   0.292   9.226   9.940
 13        0.423   0.295   9.227   9.945
 14        0.489   0.219   9.222   9.930
 15        0.464   0.278   9.221   9.963
 16        0.492   0.140   9.265   9.896
------------------------------------------------
tot        7.395   3.523 147.945 158.863
 


 magnetization (x)
 
# of ion     s       p       d       tot
----------------------------------------
  1        0.000   0.000  -0.000  -0.000
  2        0.000   0.000  -0.000  -0.000
  3       -0.000  -0.000  -0.000  -0.000
  4       -0.000   0.000  -0.000  -0.000
  5        0.000  -0.000   0.000  -0.000
  6       -0.000   0.000  -0.000  -0.000
  7        0.000  -0.000  -0.000  -0.000
  8       -0.000  -0.000  -0.000  -0.000
  9        0.000  -0.000  -0.000  -0.000
 10        0.000   0.000  -0.000   0.000
 11       -0.000  -0.000  -0.000  -0.000
 12       -0.000   0.000  -0.000  -0.000
 13        0.000  -0.000  -0.000  -0.000
 14       -0.000  -0.000  -0.000  -0.000
 15       -0.000   0.000  -0.000  -0.000
 16       -0.000  -0.000  -0.000  -0.000
------------------------------------------------
tot       -0.000  -0.000  -0.000  -0.000
 

 total amount of memory used by VASP on root node   175749. kBytes
========================================================================

   base      :      30000. kBytes
   nonl-proj :      10361. kBytes
   fftplans  :      30597. kBytes
   grid      :      77361. kBytes
   one-center:         46. kBytes
   wavefun   :      27384. kBytes
 
  
  
 General timing and accounting informations for this job:
 ========================================================
  
                  Total CPU time used (sec):     3270.737
                            User time (sec):     3201.432
                          System time (sec):       69.306
                         Elapsed time (sec):     3283.655
  
                   Maximum memory used (kb):      316732.
                   Average memory used (kb):           0.
  
                          Minor page faults:      3628932
                          Major page faults:            0
                 Voluntary context switches:         4118
