 vasp.5.4.4.18Apr17-6-g9f103f2a35 (build Jan 23 2020 13:04:52) gamma-only       
  
 executed on           IFC91_ompi date 2021.01.01  10:07:40
 running on   44 total cores
 distrk:  each k-point on   44 cores,    1 groups
 distr:  one band on NCORES_PER_BAND=  11 cores,    4 groups


--------------------------------------------------------------------------------------------------------


 INCAR:
 POTCAR:    PAW_PBE Cu 22Jun2005                  
 POTCAR:    PAW_PBE Cu 22Jun2005                  
   VRHFIN =Cu: d10 p1                                                           
   LEXCH  = PE                                                                  
   EATOM  =  1390.9808 eV,  102.2342 Ry                                         
                                                                                
   TITEL  = PAW_PBE Cu 22Jun2005                                                
   LULTRA =        F    use ultrasoft PP ?                                      
   IUNSCR =        1    unscreen: 0-lin 1-nonlin 2-no                           
   RPACOR =    2.000    partial core radius                                     
   POMASS =   63.546; ZVAL   =   11.000    mass and valenz                      
   RCORE  =    2.300    outmost cutoff radius                                   
   RWIGS  =    2.200; RWIGS  =    1.164    wigner-seitz radius (au A)           
   ENMAX  =  295.446; ENMIN  =  221.585 eV                                      
   ICORE  =        3    local potential                                         
   LCOR   =        T    correct aug charges                                     
   LPAW   =        T    paw PP                                                  
   EAUG   =  586.980                                                            
   DEXC   =    0.000                                                            
   RMAX   =    2.344    core radius for proj-oper                               
   RAUG   =    1.300    factor for augmentation sphere                          
   RDEP   =    2.302    radius for radial grids                                 
   RDEPT  =    1.771    core radius for aug-charge                              
                                                                                
   Atomic configuration                                                         
    9 entries                                                                   
     n  l   j            E        occ.                                          
     1  0  0.50     -8850.2468   2.0000                                         
     2  0  0.50     -1062.3498   2.0000                                         
     2  1  1.50      -916.8226   6.0000                                         
     3  0  0.50      -114.6929   2.0000                                         
     3  1  1.50       -72.1325   6.0000                                         
     3  2  2.50        -5.0394  10.0000                                         
     4  0  0.50        -4.6097   1.0000                                         
     4  1  0.50        -4.0817   0.0000                                         
     4  3  2.50        -1.3606   0.0000                                         
   Description                                                                  
     l       E           TYP  RCUT    TYP  RCUT                                 
     2     -5.0393973     23  2.200                                             
     2     10.8846608     23  2.200                                             
     0     -4.6097109     23  2.200                                             
     0      8.2520465     23  2.200                                             
     1     -2.7211652     23  2.200                                             
     1     21.7055443     23  2.200                                             
     3      2.7211652     23  2.300                                             
  local pseudopotential read in
  partial core-charges read in
  partial kinetic energy density read in
  atomic valenz-charges read in
  non local Contribution for L=           2  read in
    real space projection operators read in
  non local Contribution for L=           2  read in
    real space projection operators read in
  non local Contribution for L=           0  read in
    real space projection operators read in
  non local Contribution for L=           0  read in
    real space projection operators read in
  non local Contribution for L=           1  read in
    real space projection operators read in
  non local Contribution for L=           1  read in
    real space projection operators read in
    PAW grid and wavefunctions read in
 
   number of l-projection  operators is LMAX  =           6
   number of lm-projection operators is LMMAX =          18
 
  PAW_PBE Cu 22Jun2005                  :
 energy of atom  1       EATOM=-1390.9808
 kinetic energy error for atom=    0.0452 (will be added to EATOM!!)
 
 
 POSCAR: Unknown Structure <s> Cu </s>           
  positions in direct lattice
  No initial velocities read in
 exchange correlation table for  LEXCH =        8
   RHO(1)=    0.500       N(1)  =     2000
   RHO(2)=  100.500       N(2)  =     4000
 


--------------------------------------------------------------------------------------------------------


 ion  position               nearest neighbor table
   1  0.272  0.378  0.426-  11 2.39   4 2.42   6 2.45
   2  0.242  0.251  0.288-   3 2.38  15 2.40  14 2.49  16 2.52   5 2.53
   3  0.309  0.261  0.328-  16 2.37  11 2.37   2 2.38  12 2.44   9 2.48   5 2.49  14 2.59
   4  0.311  0.383  0.356-   6 2.42  11 2.42   1 2.42  13 2.43   7 2.46  10 2.50   5 2.53
   5  0.265  0.329  0.310-  15 2.41  11 2.44  14 2.46   3 2.49   7 2.52   4 2.53   2 2.53
   6  0.350  0.354  0.420-   4 2.42  10 2.44   1 2.45  11 2.45  12 2.47
   7  0.345  0.347  0.291-  13 2.38   8 2.42   9 2.45   4 2.46  14 2.47  12 2.49   5 2.52  10 2.65

   8  0.424  0.333  0.297-   7 2.42   9 2.43  10 2.44  12 2.55
   9  0.375  0.271  0.279-  14 2.43   8 2.43   7 2.45   3 2.48  16 2.55  12 2.56
  10  0.394  0.380  0.356-  12 2.37  13 2.37   8 2.44   6 2.44   4 2.50   7 2.65
  11  0.289  0.312  0.386-   3 2.37   1 2.39   4 2.42   5 2.44   6 2.45  12 2.61
  12  0.371  0.305  0.357-  10 2.37   3 2.44   6 2.47   7 2.49   8 2.55   9 2.56  11 2.61
  13  0.356  0.424  0.303-  10 2.37   7 2.38   4 2.43
  14  0.302  0.291  0.248-  15 2.37  16 2.39   9 2.43   5 2.46   7 2.47   2 2.49   3 2.59
  15  0.227  0.314  0.241-  14 2.37   2 2.40   5 2.41
  16  0.313  0.214  0.265-   3 2.37  14 2.39   2 2.52   9 2.55
 

IMPORTANT INFORMATION: All symmetrisations will be switched off!
NOSYMM: (Re-)initialisation of all symmetry stuff for point group C_1.

 
 
 KPOINTS: Gamma-point only                        
  k-points in reciprocal lattice
Space group operators:
 irot       det(A)        alpha          n_x          n_y          n_z        tau_x        tau_y        tau_z
    1     1.000000     0.000000     1.000000     0.000000     0.000000     0.000000     0.000000     0.000000


--------------------------------------------------------------------------------------------------------




 Dimension of arrays:
   k-points           NKPTS =      1   k-points in BZ     NKDIM =      1   number of bands    NBANDS=    132
   number of dos      NEDOS =    301   number of ions     NIONS =     16
   non local maximal  LDIM  =      6   non local SUM 2l+1 LMDIM =     18
   total plane-waves  NPLWV = ******
   max r-space proj   IRMAX =      1   max aug-charges    IRDMAX=   2345
   dimension x,y,z NGX =   126 NGY =  126 NGZ =  126
   dimension x,y,z NGXF=   252 NGYF=  252 NGZF=  252
   support grid    NGXF=   252 NGYF=  252 NGZF=  252
   ions per type =              16
   NGX,Y,Z   is equivalent  to a cutoff of   6.98,  6.98,  6.98 a.u.
   NGXF,Y,Z  is equivalent  to a cutoff of  13.96, 13.96, 13.96 a.u.

 SYSTEM =  unknown system                          
 POSCAR =  Unknown Structure <s> Cu </s>           

 Startparameter for this run:
   NWRITE =      2    write-flag & timer
   PREC   = normal    normal or accurate (medium, high low for compatibility)
   ISTART =      0    job   : 0-new  1-cont  2-samecut
   ICHARG =      2    charge: 1-file 2-atom 10-const
   ISPIN  =      2    spin polarized calculation?
   LNONCOLLINEAR =      F non collinear calculations
   LSORBIT =      F    spin-orbit coupling
   INIWAV =      1    electr: 0-lowe 1-rand  2-diag
   LASPH  =      F    aspherical Exc in radial PAW
   METAGGA=      F    non-selfconsistent MetaGGA calc.

 Electronic Relaxation 1
   ENCUT  =  295.4 eV  21.71 Ry    4.66 a.u.  42.05 42.05 42.05*2*pi/ulx,y,z
   ENINI  =  295.4     initial cutoff
   ENAUG  =  587.0 eV  augmentation charge cutoff
   NELM   =     60;   NELMIN=  2; NELMDL= -5     # of ELM steps 
   EDIFF  = 0.1E-04   stopping-criterion for ELM
   LREAL  =      F    real-space projection
   NLSPLINE    = F    spline interpolate recip. space projectors
   LCOMPAT=      F    compatible to vasp.4.4
   GGA_COMPAT  = T    GGA compatible to vasp.4.4-vasp.4.6
   LMAXPAW     = -100 max onsite density
   LMAXMIX     =    2 max onsite mixed and CHGCAR
   VOSKOWN=      0    Vosko Wilk Nusair interpolation
   ROPT   =    0.00000
 Ionic relaxation
   EDIFFG = -.1E+00   stopping-criterion for IOM
   NSW    =    101    number of steps for IOM
   NBLOCK =      1;   KBLOCK =    101    inner block; outer block 
   IBRION =      2    ionic relax: 0-MD 1-quasi-New 2-CG
   NFREE  =      1    steps in history (QN), initial steepest desc. (CG)
   ISIF   =      2    stress and relaxation
   IWAVPR =     11    prediction:  0-non 1-charg 2-wave 3-comb
   ISYM   =      0    0-nonsym 1-usesym 2-fastsym
   LCORR  =      T    Harris-Foulkes like correction to forces

   POTIM  = 0.5000    time-step for ionic-motion
   TEIN   =    0.0    initial temperature
   TEBEG  =    0.0;   TEEND  =   0.0 temperature during run
   SMASS  =  -3.00    Nose mass-parameter (am)
   estimated Nose-frequenzy (Omega)   =  0.10E-29 period in steps =****** mass=  -0.206E-25a.u.
   SCALEE = 1.0000    scale energy and forces
   NPACO  =    256;   APACO  = 16.0  distance and # of slots for P.C.
   PSTRESS=    0.0 pullay stress

  Mass of Ions in am
   POMASS =  63.55
  Ionic Valenz
   ZVAL   =  11.00
  Atomic Wigner-Seitz radii
   RWIGS  =  -1.00
  virtual crystal weights 
   VCA    =   1.00
   NELECT =     176.0000    total number of electrons
   NUPDOWN=      -1.0000    fix difference up-down

 DOS related values:
   EMIN   =  10.00;   EMAX   =-10.00  energy-range for DOS
   EFERMI =   0.00
   ISMEAR =     0;   SIGMA  =   0.00  broadening in eV -4-tet -1-fermi 0-gaus

 Electronic relaxation 2 (details)
   IALGO  =     38    algorithm
   LDIAG  =      T    sub-space diagonalisation (order eigenvalues)
   LSUBROT=      F    optimize rotation matrix (better conditioning)
   TURBO    =      0    0=normal 1=particle mesh
   IRESTART =      0    0=no restart 2=restart with 2 vectors
   NREBOOT  =      0    no. of reboots
   NMIN     =      0    reboot dimension
   EREF     =   0.00    reference energy to select bands
   IMIX   =      4    mixing-type and parameters
     AMIX     =   0.40;   BMIX     =  1.00
     AMIX_MAG =   1.60;   BMIX_MAG =  1.00
     AMIN     =   0.10
     WC   =   100.;   INIMIX=   1;  MIXPRE=   1;  MAXMIX= -45

 Intra band minimization:
   WEIMIN = 0.0010     energy-eigenvalue tresh-hold
   EBREAK =  0.19E-07  absolut break condition
   DEPER  =   0.30     relativ break condition  

   TIME   =   0.40     timestep for ELM

  volume/ion in A,a.u.               =    1687.50     11387.81
  Fermi-wavevector in a.u.,A,eV,Ry     =   0.305814  0.577905  1.272449  0.093522
  Thomas-Fermi vector in A             =   1.179187
 
 Write flags
   LWAVE        =      F    write WAVECAR
   LDOWNSAMPLE  =      F    k-point downsampling of WAVECAR
   LCHARG       =      F    write CHGCAR
   LVTOT        =      F    write LOCPOT, total local potential
   LVHAR        =      F    write LOCPOT, Hartree potential only
   LELF         =      F    write electronic localiz. function (ELF)
   LORBIT       =     11    0 simple, 1 ext, 2 COOP (PROOUT), +10 PAW based schemes


 Dipole corrections
   LMONO  =      F    monopole corrections only (constant potential shift)
   LDIPOL =      F    correct potential (dipole corrections)
   IDIPOL =      0    1-x, 2-y, 3-z, 4-all directions 
   EPSILON=  1.0000000 bulk dielectric constant

 Exchange correlation treatment:
   GGA     =    PE    GGA type
   LEXCH   =     8    internal setting for exchange type
   VOSKOWN=      0    Vosko Wilk Nusair interpolation
   LHFCALC =     F    Hartree Fock is set to
   LHFONE  =     F    Hartree Fock one center treatment
   AEXX    =    0.0000 exact exchange contribution

 Linear response parameters
   LEPSILON=     F    determine dielectric tensor
   LRPA    =     F    only Hartree local field effects (RPA)
   LNABLA  =     F    use nabla operator in PAW spheres
   LVEL    =     F    velocity operator in full k-point grid
   LINTERFAST=   F  fast interpolation
   KINTER  =     0    interpolate to denser k-point grid
   CSHIFT  =0.1000    complex shift for real part using Kramers Kronig
   OMEGAMAX=  -1.0    maximum frequency
   DEG_THRESHOLD= 0.2000000E-02 threshold for treating states as degnerate
   RTIME   =   -0.100 relaxation time in fs
  (WPLASMAI=    0.000 imaginary part of plasma frequency in eV, 0.658/RTIME)
   DFIELD  = 0.0000000 0.0000000 0.0000000 field for delta impulse in time
 
 Orbital magnetization related:
   ORBITALMAG=     F  switch on orbital magnetization
   LCHIMAG   =     F  perturbation theory with respect to B field
   DQ        =  0.001000  dq finite difference perturbation B field
   LLRAUG    =     F  two centre corrections for induced B field



--------------------------------------------------------------------------------------------------------


 conjugate gradient relaxation of ions
 charge density and potential will be updated during run
 spin polarized calculation
 Variant of blocked Davidson
 Davidson routine will perform the subspace rotation
 perform sub-space diagonalisation
    after iterative eigenvector-optimisation
 modified Broyden-mixing scheme, WC =      100.0
 initial mixing is a Kerker type mixing with AMIX =  0.4000 and BMIX =      1.0000
 Hartree-type preconditioning will be used
 using additional bands           44
 reciprocal scheme for non local part
 use partial core corrections
 calculate Harris-corrections to forces 
   (improved forces if not selfconsistent)
 use gradient corrections 
 use of overlap-Matrix (Vanderbilt PP)
 Gauss-broadening in eV      SIGMA  =   0.00


--------------------------------------------------------------------------------------------------------


  energy-cutoff  :      295.45
  volume of cell :    27000.00
      direct lattice vectors                 reciprocal lattice vectors
    30.000000000  0.000000000  0.000000000     0.033333333  0.000000000  0.000000000
     0.000000000 30.000000000  0.000000000     0.000000000  0.033333333  0.000000000
     0.000000000  0.000000000 30.000000000     0.000000000  0.000000000  0.033333333

  length of vectors
    30.000000000 30.000000000 30.000000000     0.033333333  0.033333333  0.033333333


 
 k-points in units of 2pi/SCALE and weight: Gamma-point only                        
   0.00000000  0.00000000  0.00000000       1.000
 
 k-points in reciprocal lattice and weights: Gamma-point only                        
   0.00000000  0.00000000  0.00000000       1.000
 
 position of ions in fractional coordinates (direct lattice) 
   0.27223210  0.37786033  0.42624747
   0.24170681  0.25111022  0.28752616
   0.30904584  0.26106522  0.32808279
   0.31093511  0.38343734  0.35552889
   0.26513498  0.32914177  0.30988460
   0.35029334  0.35438037  0.41962520
   0.34517754  0.34661244  0.29073481
   0.42429330  0.33276517  0.29722163
   0.37461734  0.27131977  0.27878424
   0.39422857  0.38022820  0.35612657
   0.28940152  0.31165432  0.38554674
   0.37129415  0.30470485  0.35738678
   0.35641308  0.42429173  0.30251553
   0.30249361  0.29100930  0.24750039
   0.22738108  0.31438588  0.24063459
   0.31343340  0.21411484  0.26473538
 
 position of ions in cartesian coordinates  (Angst):
   8.16696292 11.33581000 12.78742423
   7.25120443  7.53330671  8.62578494
   9.27137509  7.83195675  9.84248374
   9.32805319 11.50312009 10.66586657
   7.95404938  9.87425324  9.29653794
  10.50880012 10.63141116 12.58875590
  10.35532631 10.39837316  8.72204442
  12.72879889  9.98295498  8.91664884
  11.23852012  8.13959323  8.36352715
  11.82685724 11.40684598 10.68379719
   8.68204562  9.34962959 11.56640221
  11.13882451  9.14114536 10.72160346
  10.69239238 12.72875184  9.07546576
   9.07480817  8.73027912  7.42501159
   6.82143253  9.43157646  7.21903767
   9.40300200  6.42344523  7.94206129
 


--------------------------------------------------------------------------------------------------------


 use parallel FFT for orbitals z direction half grid
 k-point  1 :   0.0000 0.0000 0.0000  plane waves:  155509

 maximum and minimum number of plane-waves per node :     14150    14126

 maximum number of plane-waves:    155509
 maximum index in each direction: 
   IXMAX=   42   IYMAX=   42   IZMAX=   42
   IXMIN=  -42   IYMIN=  -42   IZMIN=    0


 parallel 3D FFT for wavefunctions:
    minimum data exchange during FFTs selected (reduces bandwidth)
 parallel 3D FFT for charge:
    minimum data exchange during FFTs selected (reduces bandwidth)


 total amount of memory used by VASP MPI-rank0   110364. kBytes
=======================================================================

   base      :      30000. kBytes
   nonl-proj :       5657. kBytes
   fftplans  :      16829. kBytes
   grid      :      42892. kBytes
   one-center:         31. kBytes
   wavefun   :      14955. kBytes
 
     INWAV:  cpu time    0.0000: real time    0.0002
 Broyden mixing: mesh for mixing (old mesh)
   NGX = 85   NGY = 85   NGZ = 85
  (NGX  =252   NGY  =252   NGZ  =252)
  gives a total of 614125 points

 initial charge density was supplied:
 charge density of overlapping atoms calculated
 number of electron     176.0000000 magnetization      48.0000000
 keeping initial charge density in first step


--------------------------------------------------------------------------------------------------------


 Maximum index for augmentation-charges          198 (set IRDMAX)


--------------------------------------------------------------------------------------------------------


 First call to EWALD:  gamma=   0.059
 Maximum number of real-space cells 3x 3x 3
 Maximum number of reciprocal cells 3x 3x 3

    FEWALD:  cpu time    0.0040: real time    0.0015


--------------------------------------- Iteration      1(   1)  ---------------------------------------


    POTLOK:  cpu time    0.9680: real time    0.9738
    SETDIJ:  cpu time    0.0120: real time    0.0140
     EDDAV:  cpu time    7.2720: real time    7.2768
       DOS:  cpu time    0.0000: real time    0.0005
    --------------------------------------------
      LOOP:  cpu time    8.2560: real time    8.2652

 eigenvalue-minimisations  :   560
 total energy-change (2. order) : 0.1124586E+04  (-0.2309428E+04)
 number of electron     176.0000000 magnetization      48.0000000
 augmentation part      176.0000000 magnetization      48.0000000

 Free energy of the ion-electron system (eV)
  ---------------------------------------------------
  alpha Z        PSCENC =         6.93407324
  Ewald energy   TEWEN  =     39367.13915237
  -Hartree energ DENC   =    -59604.00702217
  -exchange      EXHF   =         0.00000000
  -V(xc)+E(xc)   XCENC  =       734.47655125
  PAW double counting   =     19635.47487684   -21326.33402971
  entropy T*S    EENTRO =        -0.00002579
  eigenvalues    EBANDS =        55.93334530
  atomic energy  EATOM  =     22254.96935453
  Solvation  Ediel_sol  =         0.00000000
  ---------------------------------------------------
  free energy    TOTEN  =      1124.58627586 eV

  energy without entropy =     1124.58630165  energy(sigma->0) =     1124.58628876


--------------------------------------------------------------------------------------------------------




--------------------------------------- Iteration      1(   2)  ---------------------------------------


     EDDAV:  cpu time   10.2440: real time   10.2513
       DOS:  cpu time    0.0040: real time    0.0005
    --------------------------------------------
      LOOP:  cpu time   10.2440: real time   10.2517

 eigenvalue-minimisations  :   864
 total energy-change (2. order) :-0.7930315E+03  (-0.6636556E+03)
 number of electron     176.0000000 magnetization      48.0000000
 augmentation part      176.0000000 magnetization      48.0000000

 Free energy of the ion-electron system (eV)
  ---------------------------------------------------
  alpha Z        PSCENC =         6.93407324
  Ewald energy   TEWEN  =     39367.13915237
  -Hartree energ DENC   =    -59604.00702217
  -exchange      EXHF   =         0.00000000
  -V(xc)+E(xc)   XCENC  =       734.47655125
  PAW double counting   =     19635.47487684   -21326.33402971
  entropy T*S    EENTRO =        -0.00000000
  eigenvalues    EBANDS =      -737.09822936
  atomic energy  EATOM  =     22254.96935453
  Solvation  Ediel_sol  =         0.00000000
  ---------------------------------------------------
  free energy    TOTEN  =       331.55472699 eV

  energy without entropy =      331.55472699  energy(sigma->0) =      331.55472699


--------------------------------------------------------------------------------------------------------




--------------------------------------- Iteration      1(   3)  ---------------------------------------


     EDDAV:  cpu time    8.9120: real time    8.9196
       DOS:  cpu time    0.0000: real time    0.0005
    --------------------------------------------
      LOOP:  cpu time    8.9120: real time    8.9200

 eigenvalue-minimisations  :   728
 total energy-change (2. order) :-0.3126518E+03  (-0.2938877E+03)
 number of electron     176.0000000 magnetization      48.0000000
 augmentation part      176.0000000 magnetization      48.0000000

 Free energy of the ion-electron system (eV)
  ---------------------------------------------------
  alpha Z        PSCENC =         6.93407324
  Ewald energy   TEWEN  =     39367.13915237
  -Hartree energ DENC   =    -59604.00702217
  -exchange      EXHF   =         0.00000000
  -V(xc)+E(xc)   XCENC  =       734.47655125
  PAW double counting   =     19635.47487684   -21326.33402971
  entropy T*S    EENTRO =        -0.00000000
  eigenvalues    EBANDS =     -1049.75007819
  atomic energy  EATOM  =     22254.96935453
  Solvation  Ediel_sol  =         0.00000000
  ---------------------------------------------------
  free energy    TOTEN  =        18.90287816 eV

  energy without entropy =       18.90287816  energy(sigma->0) =       18.90287816


--------------------------------------------------------------------------------------------------------




--------------------------------------- Iteration      1(   4)  ---------------------------------------


     EDDAV:  cpu time    9.0560: real time    9.0661
       DOS:  cpu time    0.0000: real time    0.0003
    --------------------------------------------
      LOOP:  cpu time    9.0560: real time    9.0664

 eigenvalue-minimisations  :   744
 total energy-change (2. order) :-0.4300471E+02  (-0.3847003E+02)
 number of electron     176.0000000 magnetization      48.0000000
 augmentation part      176.0000000 magnetization      48.0000000

 Free energy of the ion-electron system (eV)
  ---------------------------------------------------
  alpha Z        PSCENC =         6.93407324
  Ewald energy   TEWEN  =     39367.13915237
  -Hartree energ DENC   =    -59604.00702217
  -exchange      EXHF   =         0.00000000
  -V(xc)+E(xc)   XCENC  =       734.47655125
  PAW double counting   =     19635.47487684   -21326.33402971
  entropy T*S    EENTRO =        -0.00000000
  eigenvalues    EBANDS =     -1092.75478930
  atomic energy  EATOM  =     22254.96935453
  Solvation  Ediel_sol  =         0.00000000
  ---------------------------------------------------
  free energy    TOTEN  =       -24.10183294 eV

  energy without entropy =      -24.10183294  energy(sigma->0) =      -24.10183294


--------------------------------------------------------------------------------------------------------




--------------------------------------- Iteration      1(   5)  ---------------------------------------


     EDDAV:  cpu time    8.7480: real time    8.7603
       DOS:  cpu time    0.0000: real time    0.0005
    CHARGE:  cpu time    0.4680: real time    0.4690
    MIXING:  cpu time    0.0200: real time    0.0204
    --------------------------------------------
      LOOP:  cpu time    9.2360: real time    9.2503

 eigenvalue-minimisations  :   712
 total energy-change (2. order) :-0.1911450E+01  (-0.1817688E+01)
 number of electron     176.0000145 magnetization      45.4450846
 augmentation part      104.4560387 magnetization      43.3061312

 Broyden mixing:
  rms(total) = 0.70616E+01    rms(broyden)= 0.70600E+01
  rms(prec ) = 0.71020E+01
  weight for this iteration     100.00

 Free energy of the ion-electron system (eV)
  ---------------------------------------------------
  alpha Z        PSCENC =         6.93407324
  Ewald energy   TEWEN  =     39367.13915237
  -Hartree energ DENC   =    -59604.00702217
  -exchange      EXHF   =         0.00000000
  -V(xc)+E(xc)   XCENC  =       734.47655125
  PAW double counting   =     19635.47487684   -21326.33402971
  entropy T*S    EENTRO =        -0.00000000
  eigenvalues    EBANDS =     -1094.66623949
  atomic energy  EATOM  =     22254.96935453
  Solvation  Ediel_sol  =         0.00000000
  ---------------------------------------------------
  free energy    TOTEN  =       -26.01328314 eV

  energy without entropy =      -26.01328314  energy(sigma->0) =      -26.01328314


--------------------------------------------------------------------------------------------------------




--------------------------------------- Iteration      1(   6)  ---------------------------------------


    POTLOK:  cpu time    0.9520: real time    0.9524
    SETDIJ:  cpu time    0.0160: real time    0.0143
     EDDAV:  cpu time    7.5760: real time    7.5760
       DOS:  cpu time    0.0000: real time    0.0006
    CHARGE:  cpu time    0.4720: real time    0.4717
    MIXING:  cpu time    0.0200: real time    0.0218
    --------------------------------------------
      LOOP:  cpu time    9.0360: real time    9.0368

 eigenvalue-minimisations  :   592
 total energy-change (2. order) : 0.1306306E+03  (-0.7467859E+02)
 number of electron     176.0000146 magnetization      43.6298961
 augmentation part      120.5717688 magnetization      27.9513740

 Broyden mixing:
  rms(total) = 0.30402E+01    rms(broyden)= 0.30376E+01
  rms(prec ) = 0.31078E+01
  weight for this iteration     100.00

 eigenvalues of (default mixing * dielectric matrix)
  average eigenvalue GAMMA=   0.9258
  0.9258

 Free energy of the ion-electron system (eV)
  ---------------------------------------------------
  alpha Z        PSCENC =         6.93407324
  Ewald energy   TEWEN  =     39367.13915237
  -Hartree energ DENC   =    -59165.78347792
  -exchange      EXHF   =         0.00000000
  -V(xc)+E(xc)   XCENC  =       808.34893250
  PAW double counting   =     19655.64538153   -21266.95470201
  entropy T*S    EENTRO =         0.00000000
  eigenvalues    EBANDS =     -1555.68136849
  atomic energy  EATOM  =     22254.96935453
  Solvation  Ediel_sol  =         0.00000000
  ---------------------------------------------------
  free energy    TOTEN  =       104.61734575 eV

  energy without entropy =      104.61734575  energy(sigma->0) =      104.61734575


--------------------------------------------------------------------------------------------------------




--------------------------------------- Iteration      1(   7)  ---------------------------------------


    POTLOK:  cpu time    0.9400: real time    0.9514
    SETDIJ:  cpu time    0.0160: real time    0.0144
     EDDAV:  cpu time    8.2040: real time    8.2026
       DOS:  cpu time    0.0000: real time    0.0005
    CHARGE:  cpu time    0.4680: real time    0.4673
    MIXING:  cpu time    0.0200: real time    0.0230
    --------------------------------------------
      LOOP:  cpu time    9.6480: real time    9.6592

 eigenvalue-minimisations  :   656
 total energy-change (2. order) :-0.1847511E+02  (-0.2850106E+02)
 number of electron     176.0000120 magnetization      41.3158472
 augmentation part      114.7077053 magnetization      26.7165005

 Broyden mixing:
  rms(total) = 0.15726E+01    rms(broyden)= 0.15718E+01
  rms(prec ) = 0.15916E+01
  weight for this iteration     100.00

 eigenvalues of (default mixing * dielectric matrix)
  average eigenvalue GAMMA=   0.8920
  1.1200  0.6640

 Free energy of the ion-electron system (eV)
  ---------------------------------------------------
  alpha Z        PSCENC =         6.93407324
  Ewald energy   TEWEN  =     39367.13915237
  -Hartree energ DENC   =    -59518.67104143
  -exchange      EXHF   =         0.00000000
  -V(xc)+E(xc)   XCENC  =       807.14575847
  PAW double counting   =     20194.46713074   -21938.05422427
  entropy T*S    EENTRO =         0.00000000
  eigenvalues    EBANDS =     -1087.78796653
  atomic energy  EATOM  =     22254.96935453
  Solvation  Ediel_sol  =         0.00000000
  ---------------------------------------------------
  free energy    TOTEN  =        86.14223712 eV

  energy without entropy =       86.14223712  energy(sigma->0) =       86.14223712


--------------------------------------------------------------------------------------------------------




--------------------------------------- Iteration      1(   8)  ---------------------------------------


    POTLOK:  cpu time    0.9440: real time    0.9514
    SETDIJ:  cpu time    0.0120: real time    0.0134
     EDDAV:  cpu time    8.7120: real time    8.7110
       DOS:  cpu time    0.0000: real time    0.0006
    CHARGE:  cpu time    0.4720: real time    0.4693
    MIXING:  cpu time    0.0240: real time    0.0240
    --------------------------------------------
      LOOP:  cpu time   10.1640: real time   10.1699

 eigenvalue-minimisations  :   708
 total energy-change (2. order) : 0.9423408E+01  (-0.5136000E+01)
 number of electron     176.0000141 magnetization      39.9581318
 augmentation part      112.2703874 magnetization      23.0946118

 Broyden mixing:
  rms(total) = 0.14427E+01    rms(broyden)= 0.14415E+01
  rms(prec ) = 0.14792E+01
  weight for this iteration     100.00

 eigenvalues of (default mixing * dielectric matrix)
  average eigenvalue GAMMA=   0.8028
  1.1972  0.6901  0.5211

 Free energy of the ion-electron system (eV)
  ---------------------------------------------------
  alpha Z        PSCENC =         6.93407324
  Ewald energy   TEWEN  =     39367.13915237
  -Hartree energ DENC   =    -59626.75566564
  -exchange      EXHF   =         0.00000000
  -V(xc)+E(xc)   XCENC  =       817.16152791
  PAW double counting   =     20592.82931145   -22353.90530279
  entropy T*S    EENTRO =         0.00000000
  eigenvalues    EBANDS =      -962.80680567
  atomic energy  EATOM  =     22254.96935453
  Solvation  Ediel_sol  =         0.00000000
  ---------------------------------------------------
  free energy    TOTEN  =        95.56564540 eV

  energy without entropy =       95.56564540  energy(sigma->0) =       95.56564540


--------------------------------------------------------------------------------------------------------




--------------------------------------- Iteration      1(   9)  ---------------------------------------


    POTLOK:  cpu time    0.9480: real time    0.9506
    SETDIJ:  cpu time    0.0160: real time    0.0135
     EDDAV:  cpu time    8.1640: real time    8.1647
       DOS:  cpu time    0.0000: real time    0.0006
    CHARGE:  cpu time    0.4640: real time    0.4652
    MIXING:  cpu time    0.0280: real time    0.0255
    --------------------------------------------
      LOOP:  cpu time    9.6200: real time    9.6202

 eigenvalue-minimisations  :   652
 total energy-change (2. order) :-0.4672998E+01  (-0.1321643E+01)
 number of electron     176.0000127 magnetization      37.6893142
 augmentation part      112.9790622 magnetization      22.5606785

 Broyden mixing:
  rms(total) = 0.95945E+00    rms(broyden)= 0.95824E+00
  rms(prec ) = 0.96940E+00
  weight for this iteration     100.00

 eigenvalues of (default mixing * dielectric matrix)
  average eigenvalue GAMMA=   0.8314
  1.3089  0.8007  0.8007  0.4152

 Free energy of the ion-electron system (eV)
  ---------------------------------------------------
  alpha Z        PSCENC =         6.93407324
  Ewald energy   TEWEN  =     39367.13915237
  -Hartree energ DENC   =    -59595.49678850
  -exchange      EXHF   =         0.00000000
  -V(xc)+E(xc)   XCENC  =       811.88187673
  PAW double counting   =     20656.07050626   -22405.25907216
  entropy T*S    EENTRO =         0.00000000
  eigenvalues    EBANDS =     -1005.34645491
  atomic energy  EATOM  =     22254.96935453
  Solvation  Ediel_sol  =         0.00000000
  ---------------------------------------------------
  free energy    TOTEN  =        90.89264756 eV

  energy without entropy =       90.89264756  energy(sigma->0) =       90.89264756


--------------------------------------------------------------------------------------------------------




--------------------------------------- Iteration      1(  10)  ---------------------------------------


    POTLOK:  cpu time    0.9400: real time    0.9499
    SETDIJ:  cpu time    0.0120: real time    0.0148
     EDDAV:  cpu time    9.4080: real time    9.4059
       DOS:  cpu time    0.0000: real time    0.0005
    CHARGE:  cpu time    0.4640: real time    0.4651
    MIXING:  cpu time    0.0280: real time    0.0271
    --------------------------------------------
      LOOP:  cpu time   10.8520: real time   10.8633

 eigenvalue-minimisations  :   780
 total energy-change (2. order) :-0.2328141E+02  (-0.1102011E+01)
 number of electron     176.0000132 magnetization      34.2944475
 augmentation part      113.4827799 magnetization      19.8518849

 Broyden mixing:
  rms(total) = 0.75583E+00    rms(broyden)= 0.75544E+00
  rms(prec ) = 0.76188E+00
  weight for this iteration     100.00

 eigenvalues of (default mixing * dielectric matrix)
  average eigenvalue GAMMA=   0.9565
  1.5657  1.5657  0.6609  0.5772  0.4131

 Free energy of the ion-electron system (eV)
  ---------------------------------------------------
  alpha Z        PSCENC =         6.93407324
  Ewald energy   TEWEN  =     39367.13915237
  -Hartree energ DENC   =    -59579.99092298
  -exchange      EXHF   =         0.00000000
  -V(xc)+E(xc)   XCENC  =       791.86612280
  PAW double counting   =     20729.12333546   -22462.57487752
  entropy T*S    EENTRO =         0.00000000
  eigenvalues    EBANDS =     -1039.85500352
  atomic energy  EATOM  =     22254.96935453
  Solvation  Ediel_sol  =         0.00000000
  ---------------------------------------------------
  free energy    TOTEN  =        67.61123437 eV

  energy without entropy =       67.61123437  energy(sigma->0) =       67.61123437


--------------------------------------------------------------------------------------------------------




--------------------------------------- Iteration      1(  11)  ---------------------------------------


    POTLOK:  cpu time    0.9440: real time    0.9609
    SETDIJ:  cpu time    0.0160: real time    0.0142
     EDDAV:  cpu time    8.8760: real time    8.8775
       DOS:  cpu time    0.0040: real time    0.0005
    CHARGE:  cpu time    0.4640: real time    0.4655
    MIXING:  cpu time    0.0280: real time    0.0285
    --------------------------------------------
      LOOP:  cpu time   10.3320: real time   10.3471

 eigenvalue-minimisations  :   720
 total energy-change (2. order) :-0.2960710E+02  (-0.1890917E+01)
 number of electron     176.0000130 magnetization      31.5686442
 augmentation part      113.9780379 magnetization      20.0717649

 Broyden mixing:
  rms(total) = 0.62920E+00    rms(broyden)= 0.62859E+00
  rms(prec ) = 0.63537E+00
  weight for this iteration     100.00

 eigenvalues of (default mixing * dielectric matrix)
  average eigenvalue GAMMA=   0.9804
  2.1605  1.5379  0.6306  0.6306  0.5253  0.3974

 Free energy of the ion-electron system (eV)
  ---------------------------------------------------
  alpha Z        PSCENC =         6.93407324
  Ewald energy   TEWEN  =     39367.13915237
  -Hartree energ DENC   =    -59566.49025454
  -exchange      EXHF   =         0.00000000
  -V(xc)+E(xc)   XCENC  =       768.44380234
  PAW double counting   =     20768.30381593   -22483.68308360
  entropy T*S    EENTRO =         0.00000000
  eigenvalues    EBANDS =     -1077.61272179
  atomic energy  EATOM  =     22254.96935453
  Solvation  Ediel_sol  =         0.00000000
  ---------------------------------------------------
  free energy    TOTEN  =        38.00413848 eV

  energy without entropy =       38.00413848  energy(sigma->0) =       38.00413848


--------------------------------------------------------------------------------------------------------




--------------------------------------- Iteration      1(  12)  ---------------------------------------


    POTLOK:  cpu time    0.9520: real time    0.9555
    SETDIJ:  cpu time    0.0160: real time    0.0141
     EDDAV:  cpu time    8.7160: real time    8.7145
       DOS:  cpu time    0.0000: real time    0.0005
    CHARGE:  cpu time    0.4680: real time    0.4676
    MIXING:  cpu time    0.0280: real time    0.0301
    --------------------------------------------
      LOOP:  cpu time   10.1800: real time   10.1823

 eigenvalue-minimisations  :   704
 total energy-change (2. order) :-0.1300928E+02  (-0.9516746E+00)
 number of electron     176.0000137 magnetization      28.8080380
 augmentation part      113.7346608 magnetization      19.7574161

 Broyden mixing:
  rms(total) = 0.55136E+00    rms(broyden)= 0.55076E+00
  rms(prec ) = 0.55917E+00
  weight for this iteration     100.00

 eigenvalues of (default mixing * dielectric matrix)
  average eigenvalue GAMMA=   0.9749
  2.6155  1.4070  0.6805  0.6805  0.6388  0.4010  0.4010

 Free energy of the ion-electron system (eV)
  ---------------------------------------------------
  alpha Z        PSCENC =         6.93407324
  Ewald energy   TEWEN  =     39367.13915237
  -Hartree energ DENC   =    -59592.73959788
  -exchange      EXHF   =         0.00000000
  -V(xc)+E(xc)   XCENC  =       759.43128381
  PAW double counting   =     20824.94151243   -22539.27054226
  entropy T*S    EENTRO =        -0.00000000
  eigenvalues    EBANDS =     -1056.41037775
  atomic energy  EATOM  =     22254.96935453
  Solvation  Ediel_sol  =         0.00000000
  ---------------------------------------------------
  free energy    TOTEN  =        24.99485848 eV

  energy without entropy =       24.99485848  energy(sigma->0) =       24.99485848


--------------------------------------------------------------------------------------------------------




--------------------------------------- Iteration      1(  13)  ---------------------------------------


    POTLOK:  cpu time    0.9440: real time    0.9532
    SETDIJ:  cpu time    0.0120: real time    0.0133
     EDDAV:  cpu time    9.0280: real time    9.0264
       DOS:  cpu time    0.0000: real time    0.0006
    CHARGE:  cpu time    0.4680: real time    0.4674
    MIXING:  cpu time    0.0320: real time    0.0328
    --------------------------------------------
      LOOP:  cpu time   10.4840: real time   10.4937

 eigenvalue-minimisations  :   736
 total energy-change (2. order) :-0.1047239E+02  (-0.7690005E+00)
 number of electron     176.0000134 magnetization      24.5529865
 augmentation part      113.1042357 magnetization      16.1499864

 Broyden mixing:
  rms(total) = 0.42491E+00    rms(broyden)= 0.42478E+00
  rms(prec ) = 0.42888E+00
  weight for this iteration     100.00

 eigenvalues of (default mixing * dielectric matrix)
  average eigenvalue GAMMA=   1.1602
  3.8574  1.7075  0.8051  0.8051  0.6914  0.5780  0.4186  0.4186

 Free energy of the ion-electron system (eV)
  ---------------------------------------------------
  alpha Z        PSCENC =         6.93407324
  Ewald energy   TEWEN  =     39367.13915237
  -Hartree energ DENC   =    -59627.32511052
  -exchange      EXHF   =         0.00000000
  -V(xc)+E(xc)   XCENC  =       752.67399578
  PAW double counting   =     20877.08555469   -22594.36984966
  entropy T*S    EENTRO =         0.00000000
  eigenvalues    EBANDS =     -1022.58470614
  atomic energy  EATOM  =     22254.96935453
  Solvation  Ediel_sol  =         0.00000000
  ---------------------------------------------------
  free energy    TOTEN  =        14.52246429 eV

  energy without entropy =       14.52246429  energy(sigma->0) =       14.52246429


--------------------------------------------------------------------------------------------------------




--------------------------------------- Iteration      1(  14)  ---------------------------------------


    POTLOK:  cpu time    0.9440: real time    0.9550
    SETDIJ:  cpu time    0.0120: real time    0.0141
     EDDAV:  cpu time    9.2240: real time    9.2209
       DOS:  cpu time    0.0000: real time    0.0005
    CHARGE:  cpu time    0.4720: real time    0.4724
    MIXING:  cpu time    0.0360: real time    0.0359
    --------------------------------------------
      LOOP:  cpu time   10.6880: real time   10.6987

 eigenvalue-minimisations  :   756
 total energy-change (2. order) :-0.2113584E+02  (-0.1513363E+01)
 number of electron     176.0000138 magnetization      21.8019233
 augmentation part      112.9030363 magnetization      16.1967323

 Broyden mixing:
  rms(total) = 0.37226E+00    rms(broyden)= 0.37139E+00
  rms(prec ) = 0.37974E+00
  weight for this iteration     100.00

 eigenvalues of (default mixing * dielectric matrix)
  average eigenvalue GAMMA=   1.1690
  4.5580  1.7319  0.8813  0.7425  0.7425  0.6006  0.3919  0.4362  0.4362

 Free energy of the ion-electron system (eV)
  ---------------------------------------------------
  alpha Z        PSCENC =         6.93407324
  Ewald energy   TEWEN  =     39367.13915237
  -Hartree energ DENC   =    -59635.02095622
  -exchange      EXHF   =         0.00000000
  -V(xc)+E(xc)   XCENC  =       736.40634105
  PAW double counting   =     20832.60339270   -22548.11428460
  entropy T*S    EENTRO =         0.00000000
  eigenvalues    EBANDS =     -1021.53045129
  atomic energy  EATOM  =     22254.96935453
  Solvation  Ediel_sol  =         0.00000000
  ---------------------------------------------------
  free energy    TOTEN  =        -6.61337822 eV

  energy without entropy =       -6.61337822  energy(sigma->0) =       -6.61337822


--------------------------------------------------------------------------------------------------------




--------------------------------------- Iteration      1(  15)  ---------------------------------------


    POTLOK:  cpu time    0.9440: real time    0.9562
    SETDIJ:  cpu time    0.0160: real time    0.0148
     EDDAV:  cpu time    9.5040: real time    9.5054
       DOS:  cpu time    0.0000: real time    0.0006
    CHARGE:  cpu time    0.4680: real time    0.4663
    MIXING:  cpu time    0.0400: real time    0.0399
    --------------------------------------------
      LOOP:  cpu time   10.9720: real time   10.9832

 eigenvalue-minimisations  :   784
 total energy-change (2. order) :-0.9344341E+01  (-0.6492879E+00)
 number of electron     176.0000136 magnetization      19.4361805
 augmentation part      112.7205609 magnetization      16.1194650

 Broyden mixing:
  rms(total) = 0.34522E+00    rms(broyden)= 0.34423E+00
  rms(prec ) = 0.35087E+00
  weight for this iteration     100.00

 eigenvalues of (default mixing * dielectric matrix)
  average eigenvalue GAMMA=   1.1655
  5.1619  1.7075  1.0768  0.6770  0.6770  0.5483  0.5483  0.4105  0.4236  0.4236

 Free energy of the ion-electron system (eV)
  ---------------------------------------------------
  alpha Z        PSCENC =         6.93407324
  Ewald energy   TEWEN  =     39367.13915237
  -Hartree energ DENC   =    -59640.87202558
  -exchange      EXHF   =         0.00000000
  -V(xc)+E(xc)   XCENC  =       729.62871001
  PAW double counting   =     20812.24336907   -22527.62053310
  entropy T*S    EENTRO =         0.00000000
  eigenvalues    EBANDS =     -1018.37981944
  atomic energy  EATOM  =     22254.96935453
  Solvation  Ediel_sol  =         0.00000000
  ---------------------------------------------------
  free energy    TOTEN  =       -15.95771891 eV

  energy without entropy =      -15.95771891  energy(sigma->0) =      -15.95771891


--------------------------------------------------------------------------------------------------------




--------------------------------------- Iteration      1(  16)  ---------------------------------------


    POTLOK:  cpu time    0.9440: real time    0.9585
    SETDIJ:  cpu time    0.0120: real time    0.0133
     EDDAV:  cpu time    9.1000: real time    9.0983
       DOS:  cpu time    0.0000: real time    0.0006
    CHARGE:  cpu time    0.4680: real time    0.4662
    MIXING:  cpu time    0.0440: real time    0.0441
    --------------------------------------------
      LOOP:  cpu time   10.5680: real time   10.5810

 eigenvalue-minimisations  :   744
 total energy-change (2. order) :-0.4788639E+01  (-0.3170693E+00)
 number of electron     176.0000136 magnetization      17.0854060
 augmentation part      112.6713785 magnetization      14.2485428

 Broyden mixing:
  rms(total) = 0.27055E+00    rms(broyden)= 0.27043E+00
  rms(prec ) = 0.27670E+00
  weight for this iteration     100.00

 eigenvalues of (default mixing * dielectric matrix)
  average eigenvalue GAMMA=   1.2639
  5.9542  2.0353  0.9127  0.9127  0.8278  0.8278  0.6130  0.6130  0.3907  0.4080
  0.4080

 Free energy of the ion-electron system (eV)
  ---------------------------------------------------
  alpha Z        PSCENC =         6.93407324
  Ewald energy   TEWEN  =     39367.13915237
  -Hartree energ DENC   =    -59645.83086045
  -exchange      EXHF   =         0.00000000
  -V(xc)+E(xc)   XCENC  =       726.16572149
  PAW double counting   =     20809.22091161   -22524.30178125
  entropy T*S    EENTRO =         0.00000000
  eigenvalues    EBANDS =     -1015.04292967
  atomic energy  EATOM  =     22254.96935453
  Solvation  Ediel_sol  =         0.00000000
  ---------------------------------------------------
  free energy    TOTEN  =       -20.74635814 eV

  energy without entropy =      -20.74635814  energy(sigma->0) =      -20.74635814


--------------------------------------------------------------------------------------------------------




--------------------------------------- Iteration      1(  17)  ---------------------------------------


    POTLOK:  cpu time    0.9480: real time    0.9550
    SETDIJ:  cpu time    0.0160: real time    0.0144
     EDDAV:  cpu time    8.7920: real time    8.7937
       DOS:  cpu time    0.0000: real time    0.0006
    CHARGE:  cpu time    0.4680: real time    0.4653
    MIXING:  cpu time    0.0480: real time    0.0496
    --------------------------------------------
      LOOP:  cpu time   10.2720: real time   10.2786

 eigenvalue-minimisations  :   712
 total energy-change (2. order) :-0.6945323E+01  (-0.3804255E+00)
 number of electron     176.0000134 magnetization      15.3072118
 augmentation part      112.9068415 magnetization      14.6488152

 Broyden mixing:
  rms(total) = 0.26928E+00    rms(broyden)= 0.26857E+00
  rms(prec ) = 0.27572E+00
  weight for this iteration     100.00

 eigenvalues of (default mixing * dielectric matrix)
  average eigenvalue GAMMA=   1.2425
  6.5519  1.9447  0.9476  0.9476  0.8955  0.8955  0.6019  0.6019  0.3926  0.3926
  0.3689  0.3689

 Free energy of the ion-electron system (eV)
  ---------------------------------------------------
  alpha Z        PSCENC =         6.93407324
  Ewald energy   TEWEN  =     39367.13915237
  -Hartree energ DENC   =    -59630.20785542
  -exchange      EXHF   =         0.00000000
  -V(xc)+E(xc)   XCENC  =       720.46569971
  PAW double counting   =     20747.81710600   -22461.02551666
  entropy T*S    EENTRO =         0.00000000
  eigenvalues    EBANDS =     -1033.78369476
  atomic energy  EATOM  =     22254.96935453
  Solvation  Ediel_sol  =         0.00000000
  ---------------------------------------------------
  free energy    TOTEN  =       -27.69168098 eV

  energy without entropy =      -27.69168098  energy(sigma->0) =      -27.69168098


--------------------------------------------------------------------------------------------------------




--------------------------------------- Iteration      1(  18)  ---------------------------------------


    POTLOK:  cpu time    0.9480: real time    0.9602
    SETDIJ:  cpu time    0.0120: real time    0.0132
     EDDAV:  cpu time    9.3240: real time    9.3206
       DOS:  cpu time    0.0000: real time    0.0005
    CHARGE:  cpu time    0.4640: real time    0.4662
    MIXING:  cpu time    0.0600: real time    0.0572
    --------------------------------------------
      LOOP:  cpu time   10.8080: real time   10.8180

 eigenvalue-minimisations  :   768
 total energy-change (2. order) :-0.2054487E+01  (-0.9065994E-01)
 number of electron     176.0000133 magnetization      13.3671783
 augmentation part      112.8802023 magnetization      12.9561171

 Broyden mixing:
  rms(total) = 0.20853E+00    rms(broyden)= 0.20847E+00
  rms(prec ) = 0.21458E+00
  weight for this iteration     100.00

 eigenvalues of (default mixing * dielectric matrix)
  average eigenvalue GAMMA=   1.3112
  7.1829  1.9710  1.2340  1.2340  0.9244  0.9244  0.6581  0.6581  0.5283  0.5283
  0.3959  0.4031  0.4031

 Free energy of the ion-electron system (eV)
  ---------------------------------------------------
  alpha Z        PSCENC =         6.93407324
  Ewald energy   TEWEN  =     39367.13915237
  -Hartree energ DENC   =    -59631.88065438
  -exchange      EXHF   =         0.00000000
  -V(xc)+E(xc)   XCENC  =       718.89904255
  PAW double counting   =     20741.78083950   -22455.21089108
  entropy T*S    EENTRO =         0.00000000
  eigenvalues    EBANDS =     -1032.37708473
  atomic energy  EATOM  =     22254.96935453
  Solvation  Ediel_sol  =         0.00000000
  ---------------------------------------------------
  free energy    TOTEN  =       -29.74616799 eV

  energy without entropy =      -29.74616799  energy(sigma->0) =      -29.74616799


--------------------------------------------------------------------------------------------------------




--------------------------------------- Iteration      1(  19)  ---------------------------------------


    POTLOK:  cpu time    0.9440: real time    0.9607
    SETDIJ:  cpu time    0.0120: real time    0.0137
     EDDAV:  cpu time    8.6200: real time    8.6206
       DOS:  cpu time    0.0040: real time    0.0006
    CHARGE:  cpu time    0.4640: real time    0.4654
    MIXING:  cpu time    0.0640: real time    0.0663
    --------------------------------------------
      LOOP:  cpu time   10.1080: real time   10.1273

 eigenvalue-minimisations  :   696
 total energy-change (2. order) :-0.3088546E+01  (-0.9517324E-01)
 number of electron     176.0000134 magnetization      10.3019524
 augmentation part      112.8636053 magnetization      10.0568726

 Broyden mixing:
  rms(total) = 0.15588E+00    rms(broyden)= 0.15585E+00
  rms(prec ) = 0.15987E+00
  weight for this iteration     100.00

 eigenvalues of (default mixing * dielectric matrix)
  average eigenvalue GAMMA=   1.4243
  8.6023  2.4865  1.3622  1.3622  0.8857  0.8857  0.7472  0.7472  0.5986  0.5298
  0.5298  0.3976  0.4031  0.4031

 Free energy of the ion-electron system (eV)
  ---------------------------------------------------
  alpha Z        PSCENC =         6.93407324
  Ewald energy   TEWEN  =     39367.13915237
  -Hartree energ DENC   =    -59621.52792587
  -exchange      EXHF   =         0.00000000
  -V(xc)+E(xc)   XCENC  =       716.22675607
  PAW double counting   =     20703.74503696   -22418.26100230
  entropy T*S    EENTRO =         0.00000000
  eigenvalues    EBANDS =     -1042.06015903
  atomic energy  EATOM  =     22254.96935453
  Solvation  Ediel_sol  =         0.00000000
  ---------------------------------------------------
  free energy    TOTEN  =       -32.83471402 eV

  energy without entropy =      -32.83471402  energy(sigma->0) =      -32.83471402


--------------------------------------------------------------------------------------------------------




--------------------------------------- Iteration      1(  20)  ---------------------------------------


    POTLOK:  cpu time    0.9440: real time    0.9592
    SETDIJ:  cpu time    0.0160: real time    0.0135
     EDDAV:  cpu time    9.4920: real time    9.4939
       DOS:  cpu time    0.0000: real time    0.0004
    CHARGE:  cpu time    0.4680: real time    0.4652
    MIXING:  cpu time    0.0720: real time    0.0735
    --------------------------------------------
      LOOP:  cpu time   10.9920: real time   11.0058

 eigenvalue-minimisations  :   784
 total energy-change (2. order) :-0.3143225E+01  (-0.9211455E-01)
 number of electron     176.0000133 magnetization       9.5546757
 augmentation part      112.9225763 magnetization       9.5142093

 Broyden mixing:
  rms(total) = 0.11449E+00    rms(broyden)= 0.11444E+00
  rms(prec ) = 0.11688E+00
  weight for this iteration     100.00

 eigenvalues of (default mixing * dielectric matrix)
  average eigenvalue GAMMA=   1.4045
  8.7521  2.4727  1.4247  1.2953  1.2953  0.8444  0.8444  0.6760  0.6760  0.5927
  0.4955  0.4955  0.3977  0.4024  0.4024

 Free energy of the ion-electron system (eV)
  ---------------------------------------------------
  alpha Z        PSCENC =         6.93407324
  Ewald energy   TEWEN  =     39367.13915237
  -Hartree energ DENC   =    -59606.49763165
  -exchange      EXHF   =         0.00000000
  -V(xc)+E(xc)   XCENC  =       713.20059242
  PAW double counting   =     20652.74104610   -22367.62780826
  entropy T*S    EENTRO =         0.00000000
  eigenvalues    EBANDS =     -1056.83671758
  atomic energy  EATOM  =     22254.96935453
  Solvation  Ediel_sol  =         0.00000000
  ---------------------------------------------------
  free energy    TOTEN  =       -35.97793882 eV

  energy without entropy =      -35.97793882  energy(sigma->0) =      -35.97793882


--------------------------------------------------------------------------------------------------------




--------------------------------------- Iteration      1(  21)  ---------------------------------------


    POTLOK:  cpu time    0.9480: real time    0.9574
    SETDIJ:  cpu time    0.0120: real time    0.0137
     EDDAV:  cpu time    9.2560: real time    9.2545
       DOS:  cpu time    0.0000: real time    0.0005
    CHARGE:  cpu time    0.4680: real time    0.4665
    MIXING:  cpu time    0.0800: real time    0.0803
    --------------------------------------------
      LOOP:  cpu time   10.7640: real time   10.7729

 eigenvalue-minimisations  :   760
 total energy-change (2. order) :-0.9407693E+00  (-0.1994399E-01)
 number of electron     176.0000134 magnetization       7.7723442
 augmentation part      112.9128984 magnetization       7.7288372

 Broyden mixing:
  rms(total) = 0.90354E-01    rms(broyden)= 0.90345E-01
  rms(prec ) = 0.92295E-01
  weight for this iteration     100.00

 eigenvalues of (default mixing * dielectric matrix)
  average eigenvalue GAMMA=   1.4672
  9.4493  3.1551  1.4444  1.4444  1.1217  1.1217  0.8271  0.8271  0.6888  0.6888
  0.5609  0.4045  0.4045  0.4700  0.4700  0.3968

 Free energy of the ion-electron system (eV)
  ---------------------------------------------------
  alpha Z        PSCENC =         6.93407324
  Ewald energy   TEWEN  =     39367.13915237
  -Hartree energ DENC   =    -59603.22048769
  -exchange      EXHF   =         0.00000000
  -V(xc)+E(xc)   XCENC  =       712.33547383
  PAW double counting   =     20653.02094417   -22368.33532933
  entropy T*S    EENTRO =         0.00000000
  eigenvalues    EBANDS =     -1059.76188922
  atomic energy  EATOM  =     22254.96935453
  Solvation  Ediel_sol  =         0.00000000
  ---------------------------------------------------
  free energy    TOTEN  =       -36.91870809 eV

  energy without entropy =      -36.91870809  energy(sigma->0) =      -36.91870809


--------------------------------------------------------------------------------------------------------




--------------------------------------- Iteration      1(  22)  ---------------------------------------


    POTLOK:  cpu time    0.9480: real time    0.9528
    SETDIJ:  cpu time    0.0120: real time    0.0133
     EDDAV:  cpu time    8.6880: real time    8.6861
       DOS:  cpu time    0.0000: real time    0.0007
    CHARGE:  cpu time    0.4680: real time    0.4672
    MIXING:  cpu time    0.0880: real time    0.0881
    --------------------------------------------
      LOOP:  cpu time   10.2040: real time   10.2081

 eigenvalue-minimisations  :   704
 total energy-change (2. order) :-0.1269574E+01  (-0.1600640E-01)
 number of electron     176.0000134 magnetization       6.2496726
 augmentation part      112.9372611 magnetization       6.2300409

 Broyden mixing:
  rms(total) = 0.67205E-01    rms(broyden)= 0.67194E-01
  rms(prec ) = 0.68686E-01
  weight for this iteration     100.00

 eigenvalues of (default mixing * dielectric matrix)
  average eigenvalue GAMMA=   1.5334
 10.1144  3.7876  1.7435  1.4804  1.4804  0.8990  0.8990  0.9075  0.7132  0.7132
  0.5953  0.5953  0.4043  0.4043  0.4670  0.4670  0.3964

 Free energy of the ion-electron system (eV)
  ---------------------------------------------------
  alpha Z        PSCENC =         6.93407324
  Ewald energy   TEWEN  =     39367.13915237
  -Hartree energ DENC   =    -59592.88937602
  -exchange      EXHF   =         0.00000000
  -V(xc)+E(xc)   XCENC  =       711.01115960
  PAW double counting   =     20642.27260188   -22357.71343486
  entropy T*S    EENTRO =         0.00000000
  eigenvalues    EBANDS =     -1069.91181290
  atomic energy  EATOM  =     22254.96935453
  Solvation  Ediel_sol  =         0.00000000
  ---------------------------------------------------
  free energy    TOTEN  =       -38.18828215 eV

  energy without entropy =      -38.18828215  energy(sigma->0) =      -38.18828215


--------------------------------------------------------------------------------------------------------




--------------------------------------- Iteration      1(  23)  ---------------------------------------


    POTLOK:  cpu time    0.9480: real time    0.9569
    SETDIJ:  cpu time    0.0120: real time    0.0140
     EDDAV:  cpu time    8.8080: real time    8.8057
       DOS:  cpu time    0.0000: real time    0.0005
    CHARGE:  cpu time    0.4680: real time    0.4681
    MIXING:  cpu time    0.0960: real time    0.0962
    --------------------------------------------
      LOOP:  cpu time   10.3320: real time   10.3414

 eigenvalue-minimisations  :   716
 total energy-change (2. order) :-0.9556347E+00  (-0.7831767E-02)
 number of electron     176.0000134 magnetization       5.0245290
 augmentation part      112.9246112 magnetization       5.0056020

 Broyden mixing:
  rms(total) = 0.48417E-01    rms(broyden)= 0.48410E-01
  rms(prec ) = 0.49506E-01
  weight for this iteration     100.00

 eigenvalues of (default mixing * dielectric matrix)
  average eigenvalue GAMMA=   1.5751
 10.7933  4.1634  1.9891  1.4918  1.4918  1.0409  1.0409  0.8237  0.8237  0.7000
  0.7000  0.6050  0.5557  0.4047  0.4047  0.4631  0.4631  0.3960

 Free energy of the ion-electron system (eV)
  ---------------------------------------------------
  alpha Z        PSCENC =         6.93407324
  Ewald energy   TEWEN  =     39367.13915237
  -Hartree energ DENC   =    -59584.49241022
  -exchange      EXHF   =         0.00000000
  -V(xc)+E(xc)   XCENC  =       710.02847864
  PAW double counting   =     20639.51299668   -22355.32296175
  entropy T*S    EENTRO =         0.00000000
  eigenvalues    EBANDS =     -1077.91260033
  atomic energy  EATOM  =     22254.96935453
  Solvation  Ediel_sol  =         0.00000000
  ---------------------------------------------------
  free energy    TOTEN  =       -39.14391685 eV

  energy without entropy =      -39.14391685  energy(sigma->0) =      -39.14391685


--------------------------------------------------------------------------------------------------------




--------------------------------------- Iteration      1(  24)  ---------------------------------------


    POTLOK:  cpu time    0.9440: real time    0.9543
    SETDIJ:  cpu time    0.0120: real time    0.0148
     EDDAV:  cpu time    8.7720: real time    8.7692
       DOS:  cpu time    0.0000: real time    0.0005
    CHARGE:  cpu time    0.4680: real time    0.4681
    MIXING:  cpu time    0.1040: real time    0.1042
    --------------------------------------------
      LOOP:  cpu time   10.3000: real time   10.3111

 eigenvalue-minimisations  :   712
 total energy-change (2. order) :-0.5883803E+00  (-0.2565290E-02)
 number of electron     176.0000133 magnetization       3.8777988
 augmentation part      112.9365874 magnetization       3.8702133

 Broyden mixing:
  rms(total) = 0.38695E-01    rms(broyden)= 0.38690E-01
  rms(prec ) = 0.39409E-01
  weight for this iteration     100.00

 eigenvalues of (default mixing * dielectric matrix)
  average eigenvalue GAMMA=   1.6067
 11.2500  4.6186  2.2345  1.4552  1.4552  1.4649  0.8618  0.8618  0.8225  0.8225
  0.7128  0.7128  0.5613  0.5613  0.4046  0.4046  0.3960  0.4634  0.4634

 Free energy of the ion-electron system (eV)
  ---------------------------------------------------
  alpha Z        PSCENC =         6.93407324
  Ewald energy   TEWEN  =     39367.13915237
  -Hartree energ DENC   =    -59577.29460101
  -exchange      EXHF   =         0.00000000
  -V(xc)+E(xc)   XCENC  =       709.38668314
  PAW double counting   =     20640.18395526   -22355.90685493
  entropy T*S    EENTRO =         0.00000000
  eigenvalues    EBANDS =     -1085.14405978
  atomic energy  EATOM  =     22254.96935453
  Solvation  Ediel_sol  =         0.00000000
  ---------------------------------------------------
  free energy    TOTEN  =       -39.73229718 eV

  energy without entropy =      -39.73229718  energy(sigma->0) =      -39.73229718


--------------------------------------------------------------------------------------------------------




--------------------------------------- Iteration      1(  25)  ---------------------------------------


    POTLOK:  cpu time    0.9440: real time    0.9678
    SETDIJ:  cpu time    0.0160: real time    0.0135
     EDDAV:  cpu time    9.1200: real time    9.1229
       DOS:  cpu time    0.0040: real time    0.0005
    CHARGE:  cpu time    0.4680: real time    0.4682
    MIXING:  cpu time    0.1120: real time    0.1122
    --------------------------------------------
      LOOP:  cpu time   10.6640: real time   10.6851

 eigenvalue-minimisations  :   748
 total energy-change (2. order) :-0.4842158E+00  (-0.1323116E-02)
 number of electron     176.0000134 magnetization       2.9145736
 augmentation part      112.9442441 magnetization       2.9194333

 Broyden mixing:
  rms(total) = 0.30757E-01    rms(broyden)= 0.30753E-01
  rms(prec ) = 0.31389E-01
  weight for this iteration     100.00

 eigenvalues of (default mixing * dielectric matrix)
  average eigenvalue GAMMA=   1.6519
 11.4172  5.3488  2.7807  1.4813  1.4813  1.5220  1.0337  1.0337  0.8461  0.8461
  0.6976  0.6976  0.6376  0.5717  0.4046  0.4046  0.3960  0.4634  0.4634  0.5111

 Free energy of the ion-electron system (eV)
  ---------------------------------------------------
  alpha Z        PSCENC =         6.93407324
  Ewald energy   TEWEN  =     39367.13915237
  -Hartree energ DENC   =    -59571.70653305
  -exchange      EXHF   =         0.00000000
  -V(xc)+E(xc)   XCENC  =       708.85888762
  PAW double counting   =     20643.62923936   -22359.23070062
  entropy T*S    EENTRO =         0.00000000
  eigenvalues    EBANDS =     -1090.80998642
  atomic energy  EATOM  =     22254.96935453
  Solvation  Ediel_sol  =         0.00000000
  ---------------------------------------------------
  free energy    TOTEN  =       -40.21651297 eV

  energy without entropy =      -40.21651297  energy(sigma->0) =      -40.21651297


--------------------------------------------------------------------------------------------------------




--------------------------------------- Iteration      1(  26)  ---------------------------------------


    POTLOK:  cpu time    0.9440: real time    0.9589
    SETDIJ:  cpu time    0.0160: real time    0.0143
     EDDAV:  cpu time    9.2920: real time    9.2932
       DOS:  cpu time    0.0040: real time    0.0006
    CHARGE:  cpu time    0.4680: real time    0.4689
    MIXING:  cpu time    0.1200: real time    0.1207
    --------------------------------------------
      LOOP:  cpu time   10.8440: real time   10.8567

 eigenvalue-minimisations  :   768
 total energy-change (2. order) :-0.4289045E+00  (-0.6042099E-03)
 number of electron     176.0000134 magnetization       2.1058207
 augmentation part      112.9390801 magnetization       2.0994609

 Broyden mixing:
  rms(total) = 0.22356E-01    rms(broyden)= 0.22353E-01
  rms(prec ) = 0.22715E-01
  weight for this iteration     100.00

 eigenvalues of (default mixing * dielectric matrix)
  average eigenvalue GAMMA=   1.6924
 11.7455  5.9881  3.1216  1.9677  1.4508  1.4508  1.1098  1.1098  0.8392  0.8392
  0.6950  0.6950  0.7457  0.4047  0.4047  0.3960  0.4614  0.4614  0.5670  0.5670
  0.5205

 Free energy of the ion-electron system (eV)
  ---------------------------------------------------
  alpha Z        PSCENC =         6.93407324
  Ewald energy   TEWEN  =     39367.13915237
  -Hartree energ DENC   =    -59567.55400052
  -exchange      EXHF   =         0.00000000
  -V(xc)+E(xc)   XCENC  =       708.41202823
  PAW double counting   =     20651.11495510   -22366.71105253
  entropy T*S    EENTRO =         0.00000000
  eigenvalues    EBANDS =     -1094.94992791
  atomic energy  EATOM  =     22254.96935453
  Solvation  Ediel_sol  =         0.00000000
  ---------------------------------------------------
  free energy    TOTEN  =       -40.64541749 eV

  energy without entropy =      -40.64541749  energy(sigma->0) =      -40.64541749


--------------------------------------------------------------------------------------------------------




--------------------------------------- Iteration      1(  27)  ---------------------------------------


    POTLOK:  cpu time    0.9440: real time    0.9621
    SETDIJ:  cpu time    0.0160: real time    0.0135
     EDDAV:  cpu time    9.3720: real time    9.3738
       DOS:  cpu time    0.0000: real time    0.0005
    CHARGE:  cpu time    0.4720: real time    0.4686
    MIXING:  cpu time    0.1280: real time    0.1293
    --------------------------------------------
      LOOP:  cpu time   10.9320: real time   10.9478

 eigenvalue-minimisations  :   776
 total energy-change (2. order) :-0.3031524E+00  (-0.3560403E-03)
 number of electron     176.0000134 magnetization       1.4157526
 augmentation part      112.9427941 magnetization       1.4113927

 Broyden mixing:
  rms(total) = 0.17268E-01    rms(broyden)= 0.17267E-01
  rms(prec ) = 0.17597E-01
  weight for this iteration     100.00

 eigenvalues of (default mixing * dielectric matrix)
  average eigenvalue GAMMA=   1.7567
 11.9438  7.0264  3.5101  2.1178  1.6492  1.4253  1.4253  1.0067  1.0067  0.8427
  0.8427  0.6962  0.6962  0.6767  0.6073  0.4046  0.4046  0.3960  0.4639  0.4639
  0.5204  0.5204

 Free energy of the ion-electron system (eV)
  ---------------------------------------------------
  alpha Z        PSCENC =         6.93407324
  Ewald energy   TEWEN  =     39367.13915237
  -Hartree energ DENC   =    -59564.91459915
  -exchange      EXHF   =         0.00000000
  -V(xc)+E(xc)   XCENC  =       708.08846914
  PAW double counting   =     20653.85480750   -22369.38346688
  entropy T*S    EENTRO =         0.00000000
  eigenvalues    EBANDS =     -1097.63636064
  atomic energy  EATOM  =     22254.96935453
  Solvation  Ediel_sol  =         0.00000000
  ---------------------------------------------------
  free energy    TOTEN  =       -40.94856989 eV

  energy without entropy =      -40.94856989  energy(sigma->0) =      -40.94856989


--------------------------------------------------------------------------------------------------------




--------------------------------------- Iteration      1(  28)  ---------------------------------------


    POTLOK:  cpu time    0.9440: real time    0.9620
    SETDIJ:  cpu time    0.0160: real time    0.0137
     EDDAV:  cpu time    8.3720: real time    8.3718
       DOS:  cpu time    0.0000: real time    0.0005
    CHARGE:  cpu time    0.4680: real time    0.4688
    MIXING:  cpu time    0.1400: real time    0.1384
    --------------------------------------------
      LOOP:  cpu time    9.9400: real time    9.9552

 eigenvalue-minimisations  :   672
 total energy-change (2. order) :-0.2353441E+00  (-0.2111885E-03)
 number of electron     176.0000134 magnetization       0.9633998
 augmentation part      112.9393606 magnetization       0.9569860

 Broyden mixing:
  rms(total) = 0.12835E-01    rms(broyden)= 0.12834E-01
  rms(prec ) = 0.13091E-01
  weight for this iteration     100.00

 eigenvalues of (default mixing * dielectric matrix)
  average eigenvalue GAMMA=   1.7936
 12.3034  7.8599  3.7664  2.5527  1.4396  1.4396  1.5010  1.0364  1.0364  0.8464
  0.8464  0.8673  0.6961  0.6961  0.6329  0.4046  0.4046  0.3960  0.5560  0.5560
  0.4638  0.4638  0.4885

 Free energy of the ion-electron system (eV)
  ---------------------------------------------------
  alpha Z        PSCENC =         6.93407324
  Ewald energy   TEWEN  =     39367.13915237
  -Hartree energ DENC   =    -59563.63564067
  -exchange      EXHF   =         0.00000000
  -V(xc)+E(xc)   XCENC  =       707.85400046
  PAW double counting   =     20655.60075440   -22371.18949099
  entropy T*S    EENTRO =         0.00000000
  eigenvalues    EBANDS =     -1098.85611731
  atomic energy  EATOM  =     22254.96935453
  Solvation  Ediel_sol  =         0.00000000
  ---------------------------------------------------
  free energy    TOTEN  =       -41.18391398 eV

  energy without entropy =      -41.18391398  energy(sigma->0) =      -41.18391398


--------------------------------------------------------------------------------------------------------




--------------------------------------- Iteration      1(  29)  ---------------------------------------


    POTLOK:  cpu time    0.9440: real time    0.9593
    SETDIJ:  cpu time    0.0160: real time    0.0146
     EDDAV:  cpu time    9.4920: real time    9.4925
       DOS:  cpu time    0.0000: real time    0.0006
    CHARGE:  cpu time    0.4680: real time    0.4670
    MIXING:  cpu time    0.1480: real time    0.1477
    --------------------------------------------
      LOOP:  cpu time   11.0680: real time   11.0818

 eigenvalue-minimisations  :   788
 total energy-change (2. order) :-0.1157414E+00  (-0.1008548E-03)
 number of electron     176.0000134 magnetization       0.6106153
 augmentation part      112.9418975 magnetization       0.6064790

 Broyden mixing:
  rms(total) = 0.90261E-02    rms(broyden)= 0.90251E-02
  rms(prec ) = 0.92427E-02
  weight for this iteration     100.00

 eigenvalues of (default mixing * dielectric matrix)
  average eigenvalue GAMMA=   1.8439
 12.7747  8.4976  4.0865  2.7473  1.5553  1.5553  1.4154  1.4154  1.0329  1.0329
  0.8373  0.8373  0.6966  0.6966  0.7292  0.6333  0.4046  0.4046  0.3960  0.4636
  0.4636  0.5378  0.5378  0.5004

 Free energy of the ion-electron system (eV)
  ---------------------------------------------------
  alpha Z        PSCENC =         6.93407324
  Ewald energy   TEWEN  =     39367.13915237
  -Hartree energ DENC   =    -59562.51078407
  -exchange      EXHF   =         0.00000000
  -V(xc)+E(xc)   XCENC  =       707.73304386
  PAW double counting   =     20654.10371944   -22369.67930697
  entropy T*S    EENTRO =         0.00000000
  eigenvalues    EBANDS =     -1099.98890783
  atomic energy  EATOM  =     22254.96935453
  Solvation  Ediel_sol  =         0.00000000
  ---------------------------------------------------
  free energy    TOTEN  =       -41.29965543 eV

  energy without entropy =      -41.29965543  energy(sigma->0) =      -41.29965543


--------------------------------------------------------------------------------------------------------




--------------------------------------- Iteration      1(  30)  ---------------------------------------


    POTLOK:  cpu time    0.9440: real time    0.9581
    SETDIJ:  cpu time    0.0120: real time    0.0141
     EDDAV:  cpu time    9.4600: real time    9.4596
       DOS:  cpu time    0.0000: real time    0.0005
    CHARGE:  cpu time    0.4680: real time    0.4681
    MIXING:  cpu time    0.1600: real time    0.1575
    --------------------------------------------
      LOOP:  cpu time   11.0440: real time   11.0579

 eigenvalue-minimisations  :   784
 total energy-change (2. order) :-0.6588440E-01  (-0.5691295E-04)
 number of electron     176.0000134 magnetization       0.3947120
 augmentation part      112.9393480 magnetization       0.3941758

 Broyden mixing:
  rms(total) = 0.62414E-02    rms(broyden)= 0.62405E-02
  rms(prec ) = 0.63934E-02
  weight for this iteration     100.00

 eigenvalues of (default mixing * dielectric matrix)
  average eigenvalue GAMMA=   1.8810
 13.1346  9.0916  4.4465  2.5183  2.4691  1.4445  1.4445  1.2530  1.2530  0.9536
  0.9536  0.8420  0.8420  0.6969  0.6969  0.6790  0.4046  0.4046  0.3960  0.4637
  0.4637  0.5812  0.5643  0.5139  0.5139

 Free energy of the ion-electron system (eV)
  ---------------------------------------------------
  alpha Z        PSCENC =         6.93407324
  Ewald energy   TEWEN  =     39367.13915237
  -Hartree energ DENC   =    -59562.20939610
  -exchange      EXHF   =         0.00000000
  -V(xc)+E(xc)   XCENC  =       707.67813292
  PAW double counting   =     20652.81458685   -22368.42619090
  entropy T*S    EENTRO =         0.00000000
  eigenvalues    EBANDS =     -1100.26525274
  atomic energy  EATOM  =     22254.96935453
  Solvation  Ediel_sol  =         0.00000000
  ---------------------------------------------------
  free energy    TOTEN  =       -41.36553983 eV

  energy without entropy =      -41.36553983  energy(sigma->0) =      -41.36553983


--------------------------------------------------------------------------------------------------------




--------------------------------------- Iteration      1(  31)  ---------------------------------------


    POTLOK:  cpu time    0.9440: real time    0.9649
    SETDIJ:  cpu time    0.0160: real time    0.0144
     EDDAV:  cpu time    8.3640: real time    8.3649
       DOS:  cpu time    0.0000: real time    0.0006
    CHARGE:  cpu time    0.4680: real time    0.4665
    MIXING:  cpu time    0.1640: real time    0.1653
    --------------------------------------------
      LOOP:  cpu time    9.9560: real time    9.9766

 eigenvalue-minimisations  :   672
 total energy-change (2. order) :-0.4753530E-01  (-0.2870181E-04)
 number of electron     176.0000134 magnetization       0.2402019
 augmentation part      112.9333925 magnetization       0.2400557

 Broyden mixing:
  rms(total) = 0.51524E-02    rms(broyden)= 0.51520E-02
  rms(prec ) = 0.52711E-02
  weight for this iteration     100.00

 eigenvalues of (default mixing * dielectric matrix)
  average eigenvalue GAMMA=   1.9161
 13.5615  9.5747  4.8976  2.7060  2.7060  1.4544  1.4544  1.4840  1.0722  1.0722
  1.0880  0.8373  0.8373  0.6979  0.6979  0.7577  0.6236  0.6236  0.4046  0.4046
  0.3960  0.4633  0.4633  0.5257  0.5257  0.4876

 Free energy of the ion-electron system (eV)
  ---------------------------------------------------
  alpha Z        PSCENC =         6.93407324
  Ewald energy   TEWEN  =     39367.13915237
  -Hartree energ DENC   =    -59562.59061952
  -exchange      EXHF   =         0.00000000
  -V(xc)+E(xc)   XCENC  =       707.64483560
  PAW double counting   =     20653.05305179   -22368.72403578
  entropy T*S    EENTRO =         0.00000000
  eigenvalues    EBANDS =     -1099.83888735
  atomic energy  EATOM  =     22254.96935453
  Solvation  Ediel_sol  =         0.00000000
  ---------------------------------------------------
  free energy    TOTEN  =       -41.41307513 eV

  energy without entropy =      -41.41307513  energy(sigma->0) =      -41.41307513


--------------------------------------------------------------------------------------------------------




--------------------------------------- Iteration      1(  32)  ---------------------------------------


    POTLOK:  cpu time    0.9520: real time    0.9565
    SETDIJ:  cpu time    0.0160: real time    0.0138
     EDDAV:  cpu time    8.5600: real time    8.5596
       DOS:  cpu time    0.0000: real time    0.0005
    CHARGE:  cpu time    0.4680: real time    0.4670
    MIXING:  cpu time    0.1680: real time    0.1709
    --------------------------------------------
      LOOP:  cpu time   10.1640: real time   10.1684

 eigenvalue-minimisations  :   692
 total energy-change (2. order) :-0.4079867E-01  (-0.1759851E-04)
 number of electron     176.0000134 magnetization       0.1538635
 augmentation part      112.9340404 magnetization       0.1549481

 Broyden mixing:
  rms(total) = 0.36574E-02    rms(broyden)= 0.36571E-02
  rms(prec ) = 0.37577E-02
  weight for this iteration     100.00

 eigenvalues of (default mixing * dielectric matrix)
  average eigenvalue GAMMA=   1.9272
 13.7933  9.9158  5.1286  3.1790  2.4931  1.7289  1.4614  1.4614  1.1481  1.1481
  0.8423  0.8423  0.9337  0.9337  0.6982  0.6982  0.7811  0.4046  0.4046  0.3960
  0.5934  0.5934  0.4632  0.4632  0.5215  0.5215  0.4860

 Free energy of the ion-electron system (eV)
  ---------------------------------------------------
  alpha Z        PSCENC =         6.93407324
  Ewald energy   TEWEN  =     39367.13915237
  -Hartree energ DENC   =    -59562.63657834
  -exchange      EXHF   =         0.00000000
  -V(xc)+E(xc)   XCENC  =       707.60372805
  PAW double counting   =     20652.30533110   -22367.94189830
  entropy T*S    EENTRO =         0.00000000
  eigenvalues    EBANDS =     -1099.82703645
  atomic energy  EATOM  =     22254.96935453
  Solvation  Ediel_sol  =         0.00000000
  ---------------------------------------------------
  free energy    TOTEN  =       -41.45387380 eV

  energy without entropy =      -41.45387380  energy(sigma->0) =      -41.45387380


--------------------------------------------------------------------------------------------------------




--------------------------------------- Iteration      1(  33)  ---------------------------------------


    POTLOK:  cpu time    0.9520: real time    0.9551
    SETDIJ:  cpu time    0.0160: real time    0.0148
     EDDAV:  cpu time    8.3680: real time    8.3659
       DOS:  cpu time    0.0000: real time    0.0006
    CHARGE:  cpu time    0.4640: real time    0.4661
    MIXING:  cpu time    0.1760: real time    0.1770
    --------------------------------------------
      LOOP:  cpu time    9.9760: real time    9.9796

[...]
    128       0.4555      0.00000
    129       0.5032      0.00000
    130       0.5109      0.00000
    131       0.5178      0.00000
    132       0.5242      0.00000


--------------------------------------------------------------------------------------------------------


 soft charge-density along one line, spin component           1
         0         1         2         3         4         5         6         7         8         9
 total charge-density along one line
 
 soft charge-density along one line, spin component           2
         0         1         2         3         4         5         6         7         8         9
 total charge-density along one line
 
 pseudopotential strength for first ion, spin component:           1
-10.559   0.028  -0.035  -0.004  -0.002   1.042  -0.021   0.026
  0.028 -10.581  -0.002   0.024   0.015  -0.021   1.057   0.002
 -0.035  -0.002 -10.587   0.024  -0.004   0.026   0.002   1.062
 -0.004   0.024   0.024 -10.573   0.024   0.003  -0.018  -0.018
 -0.002   0.015  -0.004   0.024 -10.568   0.001  -0.011   0.003
  1.042  -0.021   0.026   0.003   0.001   6.283   0.013  -0.018
 -0.021   1.057   0.002  -0.018  -0.011   0.013   6.273  -0.000
  0.026   0.002   1.062  -0.018   0.003  -0.018  -0.000   6.269
  0.003  -0.018  -0.018   1.052  -0.018  -0.001   0.012   0.012
  0.001  -0.011   0.003  -0.018   1.048  -0.001   0.007  -0.002
 -0.007   0.002   0.002  -0.007  -0.000   0.001   0.002  -0.000
 -0.012   0.004   0.003  -0.012  -0.000   0.001   0.004  -0.000
 -0.009   0.012  -0.005  -0.000  -0.009   0.004  -0.006   0.002
 -0.000   0.011   0.014  -0.008   0.001   0.001  -0.005  -0.006
  0.010  -0.000   0.006   0.014  -0.009  -0.005   0.001  -0.002
 -0.008   0.012  -0.005  -0.001  -0.009   0.001  -0.004   0.000
 -0.001   0.011   0.014  -0.007   0.001   0.001  -0.004  -0.003
  0.010  -0.001   0.005   0.014  -0.008  -0.004   0.001  -0.001
 pseudopotential strength for first ion, spin component:           2
-10.559   0.028  -0.035  -0.004  -0.002   1.042  -0.021   0.026
  0.028 -10.581  -0.002   0.024   0.015  -0.021   1.057   0.002
 -0.035  -0.002 -10.587   0.024  -0.004   0.026   0.002   1.062
 -0.004   0.024   0.024 -10.573   0.024   0.003  -0.018  -0.018
 -0.002   0.015  -0.004   0.024 -10.568   0.001  -0.011   0.003
  1.042  -0.021   0.026   0.003   0.001   6.283   0.013  -0.018
 -0.021   1.057   0.002  -0.018  -0.011   0.013   6.273  -0.000
  0.026   0.002   1.062  -0.018   0.003  -0.018  -0.000   6.269
  0.003  -0.018  -0.018   1.052  -0.018  -0.001   0.012   0.012
  0.001  -0.011   0.003  -0.018   1.048  -0.001   0.007  -0.002
 -0.007   0.002   0.002  -0.007  -0.000   0.001   0.002  -0.000
 -0.012   0.004   0.003  -0.012  -0.000   0.001   0.004  -0.000
 -0.009   0.012  -0.005  -0.000  -0.009   0.004  -0.006   0.002
 -0.000   0.011   0.014  -0.008   0.001   0.001  -0.005  -0.006
  0.010  -0.000   0.006   0.014  -0.009  -0.005   0.001  -0.002
 -0.008   0.012  -0.005  -0.001  -0.009   0.001  -0.004   0.000
 -0.001   0.011   0.014  -0.007   0.001   0.001  -0.004  -0.003
  0.010  -0.001   0.005   0.014  -0.008  -0.004   0.001  -0.001
 total augmentation occupancy for first ion, spin component:           1
  1.958   0.004  -0.014   0.007  -0.006  -0.019  -0.006   0.008  -0.000   0.000   0.010  -0.001   0.048  -0.010  -0.031  -0.022
  0.004   1.956   0.001   0.001   0.010  -0.006  -0.014  -0.002  -0.001  -0.009  -0.019  -0.002  -0.063  -0.027  -0.004   0.024
 -0.014   0.001   1.943   0.016  -0.001   0.007  -0.002  -0.011  -0.010  -0.001  -0.011   0.002   0.040  -0.065  -0.022  -0.011
  0.007   0.001   0.016   1.956  -0.001  -0.000  -0.001  -0.010  -0.015  -0.002   0.011   0.001  -0.009   0.065  -0.027   0.000
 -0.006   0.010  -0.001  -0.001   1.952   0.000  -0.010  -0.001  -0.002  -0.010   0.009  -0.004   0.050   0.012   0.052  -0.018
 -0.019  -0.006   0.007  -0.000   0.000   0.005  -0.002   0.001   0.002  -0.001  -0.026   0.004   0.010   0.003  -0.011  -0.001
 -0.006  -0.014  -0.002  -0.001  -0.010  -0.002   0.005   0.001  -0.001  -0.002   0.028  -0.003  -0.012  -0.008   0.002   0.001
  0.008  -0.002  -0.011  -0.010  -0.001   0.001   0.001   0.006  -0.001  -0.001   0.004  -0.000   0.003  -0.010  -0.006  -0.000
 -0.000  -0.001  -0.010  -0.015  -0.002   0.002  -0.001  -0.001   0.006  -0.002  -0.037   0.005   0.003   0.013  -0.014  -0.000
  0.000  -0.009  -0.001  -0.002  -0.010  -0.001  -0.002  -0.001  -0.002   0.006   0.004  -0.002   0.006   0.000   0.013  -0.000
  0.010  -0.019  -0.011   0.011   0.009  -0.026   0.028   0.004  -0.037   0.004   1.672  -0.072  -0.134  -0.172   0.178   0.016
 -0.001  -0.002   0.002   0.001  -0.004   0.004  -0.003  -0.000   0.005  -0.002  -0.072   0.008   0.011   0.016  -0.019  -0.001
  0.048  -0.063   0.040  -0.009   0.050   0.010  -0.012   0.003   0.003   0.006  -0.134   0.011   0.052   0.017  -0.015  -0.005
 -0.010  -0.027  -0.065   0.065   0.012   0.003  -0.008  -0.010   0.013   0.000  -0.172   0.016   0.017   0.061  -0.021  -0.002
 -0.031  -0.004  -0.022  -0.027   0.052  -0.011   0.002  -0.006  -0.014   0.013   0.178  -0.019  -0.015  -0.021   0.078   0.002
 -0.022   0.024  -0.011   0.000  -0.018  -0.001   0.001  -0.000  -0.000  -0.000   0.016  -0.001  -0.005  -0.002   0.002   0.001
  0.000   0.018   0.026  -0.022  -0.000  -0.000   0.001   0.001  -0.001   0.000   0.021  -0.002  -0.002  -0.006   0.003   0.000
  0.019   0.001   0.012   0.023  -0.021   0.001  -0.000   0.000   0.001  -0.001  -0.022   0.002   0.002   0.003  -0.007  -0.000
 total augmentation occupancy for first ion, spin component:           2
 -0.000  -0.000   0.000  -0.000   0.000  -0.000   0.000   0.000   0.000   0.000  -0.000   0.000  -0.000   0.000   0.000   0.000
 -0.000  -0.000   0.000   0.000  -0.000   0.000  -0.000   0.000   0.000   0.000  -0.000   0.000   0.000  -0.000  -0.000  -0.000
  0.000   0.000   0.000  -0.000  -0.000   0.000   0.000  -0.000   0.000  -0.000  -0.000   0.000   0.000  -0.000  -0.000  -0.000
 -0.000   0.000  -0.000  -0.000  -0.000   0.000   0.000   0.000  -0.000  -0.000  -0.000  -0.000   0.000  -0.000   0.000  -0.000
  0.000  -0.000  -0.000  -0.000  -0.000   0.000   0.000  -0.000  -0.000  -0.000  -0.000   0.000   0.000  -0.000   0.000  -0.000
 -0.000   0.000   0.000   0.000   0.000  -0.000  -0.000  -0.000  -0.000   0.000  -0.000  -0.000   0.000  -0.000   0.000  -0.000
  0.000  -0.000   0.000   0.000   0.000  -0.000  -0.000  -0.000  -0.000  -0.000   0.000  -0.000  -0.000   0.000  -0.000   0.000
  0.000   0.000  -0.000   0.000  -0.000  -0.000  -0.000  -0.000  -0.000   0.000  -0.000   0.000  -0.000  -0.000  -0.000   0.000
  0.000   0.000   0.000  -0.000  -0.000  -0.000  -0.000  -0.000  -0.000   0.000  -0.000   0.000  -0.000   0.000   0.000   0.000
  0.000   0.000  -0.000  -0.000  -0.000   0.000  -0.000   0.000   0.000  -0.000   0.000  -0.000   0.000  -0.000   0.000  -0.000
 -0.000  -0.000  -0.000  -0.000  -0.000  -0.000   0.000  -0.000  -0.000   0.000   0.000  -0.000   0.000   0.000  -0.000  -0.000
  0.000   0.000   0.000  -0.000   0.000  -0.000  -0.000   0.000   0.000  -0.000  -0.000   0.000   0.000   0.000  -0.000   0.000
 -0.000   0.000   0.000   0.000   0.000   0.000  -0.000  -0.000  -0.000   0.000   0.000   0.000   0.000  -0.000   0.000  -0.000
  0.000  -0.000  -0.000  -0.000  -0.000  -0.000   0.000  -0.000   0.000  -0.000   0.000   0.000  -0.000   0.000   0.000   0.000
  0.000  -0.000  -0.000   0.000   0.000   0.000  -0.000  -0.000   0.000   0.000  -0.000  -0.000   0.000   0.000   0.000  -0.000
  0.000  -0.000  -0.000  -0.000  -0.000  -0.000   0.000   0.000   0.000  -0.000  -0.000   0.000  -0.000   0.000  -0.000   0.000
  0.000   0.000   0.000   0.000   0.000   0.000  -0.000   0.000  -0.000  -0.000   0.000   0.000   0.000  -0.000  -0.000  -0.000
 -0.000   0.000   0.000  -0.000  -0.000  -0.000   0.000   0.000   0.000  -0.000  -0.000   0.000  -0.000  -0.000  -0.000   0.000


------------------------ aborting loop because EDIFF is reached ----------------------------------------


 


 total charge     
 
# of ion       s       p       d       tot
------------------------------------------
    1        0.504   0.095   9.281   9.881
    2        0.453   0.183   9.268   9.904
    3        0.474   0.295   9.218   9.988
    4        0.434   0.297   9.226   9.958
    5        0.430   0.264   9.238   9.932
    6        0.471   0.189   9.262   9.921
    7        0.437   0.315   9.219   9.971
    8        0.505   0.132   9.257   9.893
    9        0.453   0.219   9.245   9.917
   10        0.452   0.238   9.253   9.943
   11        0.445   0.258   9.234   9.937
   12        0.447   0.252   9.241   9.941
   13        0.466   0.110   9.309   9.885
   14        0.459   0.279   9.231   9.968
   15        0.477   0.108   9.305   9.890
   16        0.473   0.135   9.287   9.896
--------------------------------------------------
tot          7.379   3.370 148.075 158.824
 


 magnetization (x)
 
# of ion       s       p       d       tot
------------------------------------------
    1        0.000   0.000   0.000   0.000
    2        0.000   0.000  -0.000  -0.000
    3       -0.000  -0.000  -0.000  -0.000
    4       -0.000  -0.000  -0.000  -0.000
    5       -0.000  -0.000  -0.000  -0.000
    6        0.000  -0.000  -0.000  -0.000
    7       -0.000  -0.000  -0.000  -0.000
    8        0.000   0.000   0.000   0.000
    9        0.000   0.000  -0.000  -0.000
   10        0.000  -0.000  -0.000  -0.000
   11       -0.000  -0.000   0.000  -0.000
   12       -0.000   0.000  -0.000  -0.000
   13       -0.000   0.000   0.000   0.000
   14       -0.000  -0.000  -0.000  -0.000
   15        0.000   0.000  -0.000   0.000
   16        0.000   0.000  -0.000   0.000
--------------------------------------------------
tot          0.000  -0.000  -0.000  -0.000
 
    CHARGE:  cpu time    0.4640: real time    0.4650
    FORLOC:  cpu time    0.0320: real time    0.0325
    FORNL :  cpu time    1.8880: real time    1.8863
    STRESS:  cpu time    4.8160: real time    4.8143
    FORCOR:  cpu time    0.8960: real time    0.8957
    FORHAR:  cpu time    0.1320: real time    0.1322
    MIXING:  cpu time    0.3680: real time    0.3683
    OFIELD:  cpu time    0.0000: real time    0.0001

  FORCE on cell =-STRESS in cart. coord.  units (eV):
  Direction    XX          YY          ZZ          XY          YZ          ZX
  --------------------------------------------------------------------------------------
  Alpha Z     6.93407     6.93407     6.93407
  Ewald   13609.13357 12893.21760 12864.77702  2275.05330  4682.25945   715.57347
  Hartree 20270.64961 19621.14348 19671.47018  2124.74804  4271.35939   679.79857
  E(xc)   -1026.57322 -1026.83731 -1026.97520     0.19917     0.63485    -0.04936
  Local  -35428.69791-34056.54514-34083.24037 -4401.13483 -8949.86300 -1392.79165
  n-local  -382.17952  -384.13345  -383.24992     1.17287     2.05031    -0.56644
  augment  1501.58648  1499.47973  1501.23427     0.07173    -2.84149    -0.77699
  Kinetic  1444.81589  1442.22057  1444.40686    -0.09497    -3.76872    -1.13706
  Fock        0.00000     0.00000     0.00000     0.00000     0.00000     0.00000
  -------------------------------------------------------------------------------------
  Total      -4.33102    -4.52044    -4.64310     0.01531    -0.16921     0.05056
  in kB      -0.25700    -0.26824    -0.27552     0.00091    -0.01004     0.00300
  external pressure =       -0.27 kB  Pullay stress =        0.00 kB


 VOLUME and BASIS-vectors are now :
 -----------------------------------------------------------------------------
  energy-cutoff  :      295.45
  volume of cell :    27000.00
      direct lattice vectors                 reciprocal lattice vectors
    30.000000000  0.000000000  0.000000000     0.033333333  0.000000000  0.000000000
     0.000000000 30.000000000  0.000000000     0.000000000  0.033333333  0.000000000
     0.000000000  0.000000000 30.000000000     0.000000000  0.000000000  0.033333333

  length of vectors
    30.000000000 30.000000000 30.000000000     0.033333333  0.033333333  0.033333333


 FORCES acting on ions
    electron-ion (+dipol)            ewald-force                    non-local-force                 convergence-correction
 -----------------------------------------------------------------------------------------------
   0.779E+03 -.591E+03 -.103E+04   -.772E+03 0.585E+03 0.102E+04   -.682E+01 0.570E+01 0.708E+01   0.147E-03 -.320E-04 -.818E-04
   0.117E+04 0.909E+03 0.863E+02   -.117E+04 -.904E+03 -.869E+02   -.581E+01 -.407E+01 0.634E+00   -.390E-04 0.481E-05 -.101E-03
   0.119E+03 0.112E+04 -.567E+03   -.120E+03 -.112E+04 0.568E+03   0.152E+01 -.220E+01 -.535E+00   0.216E-03 -.539E-04 0.183E-03
   0.504E+03 -.113E+04 -.251E+03   -.503E+03 0.113E+04 0.249E+03   -.113E+01 0.168E+01 0.105E+01   0.925E-04 0.141E-04 -.184E-03
   0.112E+04 -.502E+03 0.586E+02   -.111E+04 0.500E+03 -.590E+02   -.347E+01 0.255E+01 0.425E+00   0.138E-03 0.281E-03 -.333E-04
   -.506E+03 -.206E+03 -.140E+04   0.504E+03 0.206E+03 0.140E+04   0.139E+01 0.385E+00 0.840E+01   -.161E-04 -.434E-04 -.319E-04
   -.226E+03 -.559E+03 0.885E+03   0.224E+03 0.558E+03 -.884E+03   0.194E+01 0.691E+00 -.839E+00   0.231E-05 0.219E-03 0.240E-03
   -.144E+04 -.769E+02 0.471E+03   0.143E+04 0.748E+02 -.468E+03   0.803E+01 0.206E+01 -.276E+01   0.420E-04 -.154E-04 0.173E-03
   -.101E+04 0.820E+03 0.657E+03   0.101E+04 -.815E+03 -.656E+03   0.496E+01 -.516E+01 -.112E+01   0.167E-04 0.690E-04 0.575E-04
   -.114E+04 -.831E+03 -.504E+03   0.114E+04 0.827E+03 0.502E+03   0.490E+01 0.344E+01 0.175E+01   -.803E-04 -.108E-03 -.183E-03
   0.718E+03 0.540E+03 -.104E+04   -.717E+03 -.537E+03 0.103E+04   -.700E+00 -.344E+01 0.514E+01   0.238E-03 0.116E-03 -.511E-04
   -.886E+03 0.699E+03 -.752E+03   0.883E+03 -.696E+03 0.752E+03   0.316E+01 -.337E+01 0.721E-01   -.131E-04 0.133E-03 0.212E-04
   -.229E+03 -.138E+04 0.540E+03   0.227E+03 0.137E+04 -.533E+03   0.134E+01 0.101E+02 -.661E+01   -.120E-03 -.479E-04 0.260E-04
   0.568E+02 0.877E+02 0.136E+04   -.567E+02 -.866E+02 -.136E+04   -.937E-01 -.109E+01 -.308E+01   0.547E-05 0.494E-05 -.464E-04
   0.107E+04 -.295E+03 0.912E+03   -.106E+04 0.291E+03 -.904E+03   -.848E+01 0.461E+01 -.750E+01   -.151E-04 0.965E-04 -.102E-03
   -.882E+02 0.139E+04 0.581E+03   0.872E+02 -.138E+04 -.577E+03   0.969E+00 -.101E+02 -.450E+01   0.131E-03 0.511E-04 0.894E-04
 -----------------------------------------------------------------------------------------------
   -.177E+01 -.171E+01 0.236E+01   0.483E-12 -.455E-12 0.455E-12   0.170E+01 0.183E+01 -.239E+01   0.744E-03 0.689E-03 -.241E-04
 
 
 POSITION                                       TOTAL-FORCE (eV/Angst)
 -----------------------------------------------------------------------------------
      8.16696     11.33581     12.78742        -0.049964     -0.006947     -0.039411
      7.25120      7.53331      8.62578        -0.020852      0.012543     -0.009557
      9.27138      7.83196      9.84248         0.003224      0.001246     -0.021979
      9.32805     11.50312     10.66587         0.010173     -0.037678     -0.012268
      7.95405      9.87425      9.29654        -0.030532     -0.025929      0.016975
     10.50880     10.63141     12.58876         0.009642      0.059869      0.008355
     10.35533     10.39837      8.72204         0.019522      0.037663      0.030707
     12.72880      9.98295      8.91665         0.012846     -0.035670      0.018041
     11.23852      8.13959      8.36353        -0.030323     -0.015538      0.012904
     11.82686     11.40685     10.68380         0.014815     -0.003330     -0.022426
      8.68205      9.34963     11.56640         0.005491     -0.041329      0.033234
     11.13882      9.14115     10.72160         0.026857     -0.054097      0.007019
     10.69239     12.72875      9.07547        -0.011384     -0.001997      0.013962
      9.07481      8.73028      7.42501         0.021880      0.040411     -0.005853
      6.82143      9.43158      7.21904         0.030285      0.048200     -0.004301
      9.40300      6.42345      7.94206        -0.011681      0.022582     -0.025403
 -----------------------------------------------------------------------------------
    total drift:                               -0.062059      0.124613     -0.031935


--------------------------------------------------------------------------------------------------------



  FREE ENERGIE OF THE ION-ELECTRON SYSTEM (eV)
  ---------------------------------------------------
  free  energy   TOTEN  =       -41.49199012 eV

  energy  without entropy=      -41.49199012  energy(sigma->0) =      -41.49199012
 


--------------------------------------------------------------------------------------------------------


    POTLOK:  cpu time    0.9560: real time    0.9557


--------------------------------------------------------------------------------------------------------




--------------------------------------------------------------------------------------------------------


  
 reached required accuracy - stopping structural energy minimisation
     LOOP+:  cpu time  455.8000: real time  456.2763
    4ORBIT:  cpu time    0.0000: real time    0.0000
 


 total charge     
 
# of ion       s       p       d       tot
------------------------------------------
    1        0.504   0.095   9.281   9.881
    2        0.453   0.183   9.268   9.904
    3        0.474   0.295   9.218   9.988
    4        0.434   0.297   9.226   9.958
    5        0.430   0.264   9.238   9.932
    6        0.471   0.189   9.262   9.921
    7        0.437   0.315   9.219   9.971
    8        0.505   0.132   9.257   9.893
    9        0.453   0.219   9.245   9.917
   10        0.452   0.238   9.253   9.943
   11        0.445   0.258   9.234   9.937
   12        0.447   0.252   9.241   9.941
   13        0.466   0.110   9.309   9.885
   14        0.459   0.279   9.231   9.968
   15        0.477   0.108   9.305   9.890
   16        0.473   0.135   9.287   9.896
--------------------------------------------------
tot          7.379   3.370 148.075 158.824
 


 magnetization (x)
 
# of ion       s       p       d       tot
------------------------------------------
    1        0.000   0.000   0.000   0.000
    2        0.000   0.000  -0.000  -0.000
    3       -0.000  -0.000  -0.000  -0.000
    4       -0.000  -0.000  -0.000  -0.000
    5       -0.000  -0.000  -0.000  -0.000
    6        0.000  -0.000  -0.000  -0.000
    7       -0.000  -0.000  -0.000  -0.000
    8        0.000   0.000   0.000   0.000
    9        0.000   0.000  -0.000  -0.000
   10        0.000  -0.000  -0.000  -0.000
   11       -0.000  -0.000   0.000  -0.000
   12       -0.000   0.000  -0.000  -0.000
   13       -0.000   0.000   0.000   0.000
   14       -0.000  -0.000  -0.000  -0.000
   15        0.000   0.000  -0.000   0.000
   16        0.000   0.000  -0.000   0.000
--------------------------------------------------
tot          0.000  -0.000  -0.000  -0.000
 

 total amount of memory used by VASP MPI-rank0   110364. kBytes
=======================================================================

   base      :      30000. kBytes
   nonl-proj :       5657. kBytes
   fftplans  :      16829. kBytes
   grid      :      42892. kBytes
   one-center:         31. kBytes
   wavefun   :      14955. kBytes
 
  
  
 General timing and accounting informations for this job:
 ========================================================
  
                  Total CPU time used (sec):      462.380
                            User time (sec):      460.540
                          System time (sec):        1.840
                         Elapsed time (sec):      462.952
  
                   Maximum memory used (kb):       43196.
                   Average memory used (kb):           0.
  
                          Minor page faults:        18515
                          Major page faults:           31
                 Voluntary context switches:          594
