 vasp.5.4.1 05Feb16 (build Apr 11 2020 03:28:46) gamma-only                     
  
 executed on           IFC91_ompi date 2022.06.04  04:26:15
 running on   24 total cores
 distrk:  each k-point on   24 cores,    1 groups
 distr:  one band on NCORES_PER_BAND=   6 cores,    4 groups


--------------------------------------------------------------------------------------------------------


 INCAR:
 POTCAR:    PAW_PBE Cu 22Jun2005                  
 POTCAR:    PAW_PBE Cu 22Jun2005                  
   VRHFIN =Cu: d10 p1                                                           
   LEXCH  = PE                                                                  
   EATOM  =  1390.9808 eV,  102.2342 Ry                                         
                                                                                
   TITEL  = PAW_PBE Cu 22Jun2005                                                
   LULTRA =        F    use ultrasoft PP ?                                      
   IUNSCR =        1    unscreen: 0-lin 1-nonlin 2-no                           
   RPACOR =    2.000    partial core radius                                     
   POMASS =   63.546; ZVAL   =   11.000    mass and valenz                      
   RCORE  =    2.300    outmost cutoff radius                                   
   RWIGS  =    2.200; RWIGS  =    1.164    wigner-seitz radius (au A)           
   ENMAX  =  295.446; ENMIN  =  221.585 eV                                      
   ICORE  =        3    local potential                                         
   LCOR   =        T    correct aug charges                                     
   LPAW   =        T    paw PP                                                  
   EAUG   =  586.980                                                            
   DEXC   =    0.000                                                            
   RMAX   =    2.344    core radius for proj-oper                               
   RAUG   =    1.300    factor for augmentation sphere                          
   RDEP   =    2.302    radius for radial grids                                 
   RDEPT  =    1.771    core radius for aug-charge                              
                                                                                
   Atomic configuration                                                         
    9 entries                                                                   
     n  l   j            E        occ.                                          
     1  0  0.50     -8850.2468   2.0000                                         
     2  0  0.50     -1062.3498   2.0000                                         
     2  1  1.50      -916.8226   6.0000                                         
     3  0  0.50      -114.6929   2.0000                                         
     3  1  1.50       -72.1325   6.0000                                         
     3  2  2.50        -5.0394  10.0000                                         
     4  0  0.50        -4.6097   1.0000                                         
     4  1  0.50        -4.0817   0.0000                                         
     4  3  2.50        -1.3606   0.0000                                         
   Description                                                                  
     l       E           TYP  RCUT    TYP  RCUT                                 
     2     -5.0393973     23  2.200                                             
     2     10.8846608     23  2.200                                             
     0     -4.6097109     23  2.200                                             
     0      8.2520465     23  2.200                                             
     1     -2.7211652     23  2.200                                             
     1     21.7055443     23  2.200                                             
     3      2.7211652     23  2.300                                             
  local pseudopotential read in
  partial core-charges read in
  partial kinetic energy density read in
  atomic valenz-charges read in
  non local Contribution for L=           2  read in
    real space projection operators read in
  non local Contribution for L=           2  read in
    real space projection operators read in
  non local Contribution for L=           0  read in
    real space projection operators read in
  non local Contribution for L=           0  read in
    real space projection operators read in
  non local Contribution for L=           1  read in
    real space projection operators read in
  non local Contribution for L=           1  read in
    real space projection operators read in
    PAW grid and wavefunctions read in
 
   number of l-projection  operators is LMAX  =           6
   number of lm-projection operators is LMMAX =          18
 
  PAW_PBE Cu 22Jun2005                  :
 energy of atom  1       EATOM=-1390.9808
 kinetic energy error for atom=    0.0452 (will be added to EATOM!!)
 
 
 POSCAR: Unknown Structure <s> Cu </s>           
  positions in direct lattice
  velocities in cartesian coordinates
 exchange correlation table for  LEXCH =        8
   RHO(1)=    0.500       N(1)  =     2000
   RHO(2)=  100.500       N(2)  =     4000
 


--------------------------------------------------------------------------------------------------------


 ion  position               nearest neighbor table
   1  0.268  0.364  0.251-   5 2.41  16 2.50   6 2.50  13 2.52   3 2.53   2 2.54
   2  0.224  0.302  0.289-   5 2.40  16 2.48   6 2.52  10 2.54   1 2.54  15 2.55
   3  0.338  0.330  0.219-   5 2.42   4 2.49  16 2.52   8 2.53   1 2.53  13 2.57
   4  0.384  0.301  0.282-   5 2.41   9 2.47   3 2.49   8 2.52  11 2.56  13 2.59
   5  0.304  0.302  0.287-  16 2.37   2 2.40   1 2.41   4 2.41  11 2.41  15 2.42   3 2.42   8 2.43
                            10 2.43  13 2.44   9 2.46   6 2.48
   6  0.267  0.358  0.334-  12 2.41  14 2.43   5 2.48   1 2.50   2 2.52  13 2.57  10 2.60
   7  0.366  0.342  0.425-   9 2.35  14 2.42  12 2.43
   8  0.338  0.247  0.237-   5 2.43  11 2.51  16 2.52  15 2.52   4 2.52   3 2.53
   9  0.348  0.312  0.355-   7 2.35  14 2.46   5 2.46  12 2.46   4 2.47  11 2.47  10 2.62  13 2.66

  10  0.269  0.274  0.354-  12 2.41   5 2.43   2 2.54  15 2.59   6 2.60  11 2.61   9 2.62
  11  0.341  0.238  0.320-   5 2.41   9 2.47  15 2.50   8 2.51   4 2.56  10 2.61
  12  0.287  0.331  0.407-  10 2.41   6 2.41   7 2.43   9 2.46  14 2.48
  13  0.340  0.374  0.293-  14 2.41   5 2.44   1 2.52   6 2.57   3 2.57   4 2.59   9 2.66
  14  0.332  0.391  0.371-  13 2.41   7 2.42   6 2.43   9 2.46  12 2.48
  15  0.268  0.230  0.280-   5 2.42  11 2.50  16 2.51   8 2.52   2 2.55  10 2.59
  16  0.266  0.287  0.219-   5 2.37   2 2.48   1 2.50  15 2.51   8 2.52   3 2.52
 

IMPORTANT INFORMATION: All symmetrisations will be switched off!
NOSYMM: (Re-)initialisation of all symmetry stuff for point group C_1.

 
 
 KPOINTS: Gamma-point only                        
  k-points in reciprocal lattice
Space group operators:
 irot       det(A)        alpha          n_x          n_y          n_z        tau_x        tau_y        tau_z
    1     1.000000     0.000000     1.000000     0.000000     0.000000     0.000000     0.000000     0.000000


--------------------------------------------------------------------------------------------------------




 Dimension of arrays:
   k-points           NKPTS =      1   k-points in BZ     NKDIM =      1   number of bands    NBANDS=    132
   number of dos      NEDOS =    301   number of ions     NIONS =     16
   non local maximal  LDIM  =      6   non local SUM 2l+1 LMDIM =     18
   total plane-waves  NPLWV = ******
   max r-space proj   IRMAX =      1   max aug-charges    IRDMAX=   2345
   dimension x,y,z NGX =   126 NGY =  126 NGZ =  126
   dimension x,y,z NGXF=   252 NGYF=  252 NGZF=  252
   support grid    NGXF=   252 NGYF=  252 NGZF=  252
   ions per type =              16
 NGX,Y,Z   is equivalent  to a cutoff of   6.98,  6.98,  6.98 a.u.
 NGXF,Y,Z  is equivalent  to a cutoff of  13.96, 13.96, 13.96 a.u.


 I would recommend the setting:
   dimension x,y,z NGX =   126 NGY =  126 NGZ =  126
 SYSTEM =  unknown system                          
 POSCAR =  Unknown Structure <s> Cu </s>           

 Startparameter for this run:
   NWRITE =      2    write-flag & timer
   PREC   = normal    normal or accurate (medium, high low for compatibility)
   ISTART =      0    job   : 0-new  1-cont  2-samecut
   ICHARG =      2    charge: 1-file 2-atom 10-const
   ISPIN  =      2    spin polarized calculation?
   LNONCOLLINEAR =      F non collinear calculations
   LSORBIT =      F    spin-orbit coupling
   INIWAV =      1    electr: 0-lowe 1-rand  2-diag
   LASPH  =      F    aspherical Exc in radial PAW
   METAGGA=      F    non-selfconsistent MetaGGA calc.

 Electronic Relaxation 1
   ENCUT  =  295.4 eV  21.71 Ry    4.66 a.u.  42.05 42.05 42.05*2*pi/ulx,y,z
   ENINI  =  295.4     initial cutoff
   ENAUG  =  587.0 eV  augmentation charge cutoff
   NELM   =     60;   NELMIN=  2; NELMDL=  0     # of ELM steps 
   EDIFF  = 0.1E-05   stopping-criterion for ELM
   LREAL  =      F    real-space projection
   NLSPLINE    = F    spline interpolate recip. space projectors
   LCOMPAT=      F    compatible to vasp.4.4
   GGA_COMPAT  = T    GGA compatible to vasp.4.4-vasp.4.6
   LMAXPAW     = -100 max onsite density
   LMAXMIX     =    2 max onsite mixed and CHGCAR
   VOSKOWN=      0    Vosko Wilk Nusair interpolation
   ROPT   =    0.00000
 Ionic relaxation
   EDIFFG = -.3E-01   stopping-criterion for IOM
   NSW    =   1000    number of steps for IOM
   NBLOCK =      1;   KBLOCK =   1000    inner block; outer block 
   IBRION =      2    ionic relax: 0-MD 1-quasi-New 2-CG
   NFREE  =      1    steps in history (QN), initial steepest desc. (CG)
   ISIF   =      2    stress and relaxation
   IWAVPR =     11    prediction:  0-non 1-charg 2-wave 3-comb
   ISYM   =      0    0-nonsym 1-usesym 2-fastsym
   LCORR  =      T    Harris-Foulkes like correction to forces

   POTIM  = 0.5000    time-step for ionic-motion
   TEIN   =    0.0    initial temperature
   TEBEG  =    0.0;   TEEND  =   0.0 temperature during run
   SMASS  =  -3.00    Nose mass-parameter (am)
   estimated Nose-frequenzy (Omega)   =  0.10E-29 period in steps =****** mass=  -0.206E-25a.u.
   SCALEE = 1.0000    scale energy and forces
   NPACO  =    256;   APACO  = 16.0  distance and # of slots for P.C.
   PSTRESS=    0.0 pullay stress

  Mass of Ions in am
   POMASS =  63.55
  Ionic Valenz
   ZVAL   =  11.00
  Atomic Wigner-Seitz radii
   RWIGS  =  -1.00
  virtual crystal weights 
   VCA    =   1.00
   NELECT =     176.0000    total number of electrons
   NUPDOWN=      -1.0000    fix difference up-down

 DOS related values:
   EMIN   =  10.00;   EMAX   =-10.00  energy-range for DOS
   EFERMI =   0.00
   ISMEAR =     0;   SIGMA  =   0.00  broadening in eV -4-tet -1-fermi 0-gaus

 Electronic relaxation 2 (details)
   IALGO  =     38    algorithm
   LDIAG  =      T    sub-space diagonalisation (order eigenvalues)
   LSUBROT=      F    optimize rotation matrix (better conditioning)
   TURBO    =      0    0=normal 1=particle mesh
   IRESTART =      0    0=no restart 2=restart with 2 vectors
   NREBOOT  =      0    no. of reboots
   NMIN     =      0    reboot dimension
   EREF     =   0.00    reference energy to select bands
   IMIX   =      4    mixing-type and parameters
     AMIX     =   0.40;   BMIX     =  1.00
     AMIX_MAG =   1.60;   BMIX_MAG =  1.00
     AMIN     =   0.10
     WC   =   100.;   INIMIX=   1;  MIXPRE=   1;  MAXMIX= -45

 Intra band minimization:
   WEIMIN = 0.0010     energy-eigenvalue tresh-hold
   EBREAK =  0.19E-08  absolut break condition
   DEPER  =   0.30     relativ break condition  

   TIME   =   0.40     timestep for ELM

  volume/ion in A,a.u.               =    1687.50     11387.81
  Fermi-wavevector in a.u.,A,eV,Ry     =   0.305814  0.577905  1.272449  0.093522
  Thomas-Fermi vector in A             =   1.179187
 
 Write flags
   LWAVE  =      F    write WAVECAR
   LCHARG =      F    write CHGCAR
   LVTOT  =      F    write LOCPOT, total local potential
   LVHAR  =      F    write LOCPOT, Hartree potential only
   LELF   =      F    write electronic localiz. function (ELF)
   LORBIT =     11    0 simple, 1 ext, 2 COOP (PROOUT)


 Dipole corrections
   LMONO  =      F    monopole corrections only (constant potential shift)
   LDIPOL =      F    correct potential (dipole corrections)
   IDIPOL =      0    1-x, 2-y, 3-z, 4-all directions 
   EPSILON=  1.0000000 bulk dielectric constant

 Exchange correlation treatment:
   GGA     =    PE    GGA type
   LEXCH   =     8    internal setting for exchange type
   VOSKOWN=      0    Vosko Wilk Nusair interpolation
   LHFCALC =     F    Hartree Fock is set to
   LHFONE  =     F    Hartree Fock one center treatment
   AEXX    =    0.0000 exact exchange contribution

 Linear response parameters
   LEPSILON=     F    determine dielectric tensor
   LRPA    =     F    only Hartree local field effects (RPA)
   LNABLA  =     F    use nabla operator in PAW spheres
   LVEL    =     F    velocity operator in full k-point grid
   LINTERFAST=   F  fast interpolation
   KINTER  =     0    interpolate to denser k-point grid
   CSHIFT  =0.1000    complex shift for real part using Kramers Kronig
   OMEGAMAX=  -1.0    maximum frequency
   DEG_THRESHOLD= 0.2000000E-02 threshold for treating states as degnerate
   RTIME   =    0.100 relaxation time in fs

 Orbital magnetization related:
   ORBITALMAG=     F  switch on orbital magnetization
   LCHIMAG   =     F  perturbation theory with respect to B field
   DQ        =  0.001000  dq finite difference perturbation B field



--------------------------------------------------------------------------------------------------------


 conjugate gradient relaxation of ions
 charge density and potential will be updated during run
 spin polarized calculation
 Variant of blocked Davidson
 Davidson routine will perform the subspace rotation
 perform sub-space diagonalisation
    after iterative eigenvector-optimisation
 modified Broyden-mixing scheme, WC =      100.0
 initial mixing is a Kerker type mixing with AMIX =  0.4000 and BMIX =      1.0000
 Hartree-type preconditioning will be used
 using additional bands           44
 reciprocal scheme for non local part
 use partial core corrections
 calculate Harris-corrections to forces 
   (improved forces if not selfconsistent)
 use gradient corrections 
 use of overlap-Matrix (Vanderbilt PP)
 Gauss-broadening in eV      SIGMA  =   0.00


--------------------------------------------------------------------------------------------------------


  energy-cutoff  :      295.45
  volume of cell :    27000.00
      direct lattice vectors                 reciprocal lattice vectors
    30.000000000  0.000000000  0.000000000     0.033333333  0.000000000  0.000000000
     0.000000000 30.000000000  0.000000000     0.000000000  0.033333333  0.000000000
     0.000000000  0.000000000 30.000000000     0.000000000  0.000000000  0.033333333

  length of vectors
    30.000000000 30.000000000 30.000000000     0.033333333  0.033333333  0.033333333


 
 k-points in units of 2pi/SCALE and weight: Gamma-point only                        
   0.00000000  0.00000000  0.00000000       1.000
 
 k-points in reciprocal lattice and weights: Gamma-point only                        
   0.00000000  0.00000000  0.00000000       1.000
 
 position of ions in fractional coordinates (direct lattice) 
   0.26814801  0.36380441  0.25103373
   0.22413056  0.30209242  0.28872066
   0.33848719  0.32992911  0.21925011
   0.38433865  0.30091329  0.28217029
   0.30422830  0.30166984  0.28660289
   0.26715432  0.35802386  0.33427966
   0.36554695  0.34179783  0.42531244
   0.33795115  0.24748847  0.23666298
   0.34784318  0.31206771  0.35515642
   0.26935378  0.27367559  0.35424411
   0.34074214  0.23807784  0.31965081
   0.28736256  0.33108636  0.40729204
   0.34024080  0.37445898  0.29257326
   0.33165237  0.39079016  0.37079281
   0.26806275  0.23004408  0.27991276
   0.26603381  0.28711437  0.21887206
 
 position of ions in cartesian coordinates  (Angst):
   8.04444031 10.91413239  7.53101196
   6.72391687  9.06277271  8.66161984
  10.15461573  9.89787331  6.57750325
  11.53015946  9.02739874  8.46510864
   9.12684911  9.05009507  8.59808665
   8.01462954 10.74071593 10.02838982
  10.96640839 10.25393504 12.75937310
  10.13853436  7.42465397  7.09988947
  10.43529531  9.36203125 10.65469258
   8.08061345  8.21026774 10.62732321
  10.22226418  7.14233531  9.58952438
   8.62087671  9.93259065 12.21876130
  10.20722408 11.23376939  8.77719777
   9.94957104 11.72370474 11.12378439
   8.04188249  6.90132240  8.39738288
   7.98101435  8.61343119  6.56616173
 


--------------------------------------------------------------------------------------------------------


 use parallel FFT for wavefunctions z direction half grid
 k-point  1 :   0.0000 0.0000 0.0000  plane waves:  155509

 maximum and minimum number of plane-waves per node :     25930    25903

 maximum number of plane-waves:    155509
 maximum index in each direction: 
   IXMAX=   42   IYMAX=   42   IZMAX=   42
   IXMIN=  -42   IYMIN=  -42   IZMIN=    0

 WARNING: aliasing errors must be expected set NGX to 170 to avoid them
 WARNING: aliasing errors must be expected set NGY to 170 to avoid them
 WARNING: aliasing errors must be expected set NGZ to 170 to avoid them
 aliasing errors are usually negligible using standard VASP settings
 and one can safely disregard these warnings

 parallel 3D FFT for wavefunctions:
    minimum data exchange during FFTs selected (reduces bandwidth)
 parallel 3D FFT for charge:
    minimum data exchange during FFTs selected (reduces bandwidth)


 total amount of memory used by VASP on root node   175749. kBytes
========================================================================

   base      :      30000. kBytes
   nonl-proj :      10361. kBytes
   fftplans  :      30597. kBytes
   grid      :      77361. kBytes
   one-center:         46. kBytes
   wavefun   :      27384. kBytes
 
     INWAV:  cpu time    0.0000: real time    0.0003
 Broyden mixing: mesh for mixing (old mesh)
   NGX = 85   NGY = 85   NGZ = 85
  (NGX  =252   NGY  =252   NGZ  =252)
  gives a total of 614125 points

 initial charge density was supplied:
 charge density of overlapping atoms calculated
 number of electron     176.0000000 magnetization      48.0000000
 keeping initial charge density in first step


--------------------------------------------------------------------------------------------------------


 Maximum index for augmentation-charges          199 (set IRDMAX)


--------------------------------------------------------------------------------------------------------


 First call to EWALD:  gamma=   0.059
 Maximum number of real-space cells 3x 3x 3
 Maximum number of reciprocal cells 3x 3x 3

 FEWALD executed in parallel
    FEWALD:  cpu time    0.0023: real time    0.0023


----------------------------------------- Iteration    1(   1)  ---------------------------------------


    POTLOK:  cpu time    1.3875: real time    1.3885
    SETDIJ:  cpu time    0.0168: real time    0.0168
     EDDAV:  cpu time   15.9545: real time   15.9756
       DOS:  cpu time    0.0001: real time    0.0001
    --------------------------------------------
      LOOP:  cpu time   17.3622: real time   17.3936

 eigenvalue-minimisations  :   560
 total energy-change (2. order) : 0.1134001E+04  (-0.2319301E+04)
 number of electron     176.0000000 magnetization      48.0000000
 augmentation part      176.0000000 magnetization      48.0000000

 Free energy of the ion-electron system (eV)
  ---------------------------------------------------
  alpha Z        PSCENC =         6.93407324
  Ewald energy   TEWEN  =     41815.31171437
  -Hartree energ DENC   =    -62040.88136282
  -exchange      EXHF   =         0.00000000
  -V(xc)+E(xc)   XCENC  =       735.66354144
  PAW double counting   =     19635.47487684   -21326.33402971
  entropy T*S    EENTRO =         0.00000000
  eigenvalues    EBANDS =        52.86325849
  atomic energy  EATOM  =     22254.96935453
  Solvation  Ediel_sol  =         0.00000000
  ---------------------------------------------------
  free energy    TOTEN  =      1134.00142638 eV

  energy without entropy =     1134.00142638  energy(sigma->0) =     1134.00142638


--------------------------------------------------------------------------------------------------------




----------------------------------------- Iteration    1(   2)  ---------------------------------------


     EDDAV:  cpu time   22.5349: real time   22.5713
       DOS:  cpu time    0.0001: real time    0.0001
    --------------------------------------------
      LOOP:  cpu time   22.5382: real time   22.5772

 eigenvalue-minimisations  :   848
 total energy-change (2. order) :-0.7930428E+03  (-0.6664915E+03)
 number of electron     176.0000000 magnetization      48.0000000
 augmentation part      176.0000000 magnetization      48.0000000

 Free energy of the ion-electron system (eV)
  ---------------------------------------------------
  alpha Z        PSCENC =         6.93407324
  Ewald energy   TEWEN  =     41815.31171437
  -Hartree energ DENC   =    -62040.88136282
  -exchange      EXHF   =         0.00000000
  -V(xc)+E(xc)   XCENC  =       735.66354144
  PAW double counting   =     19635.47487684   -21326.33402971
  entropy T*S    EENTRO =         0.00000000
  eigenvalues    EBANDS =      -740.17958088
  atomic energy  EATOM  =     22254.96935453
  Solvation  Ediel_sol  =         0.00000000
  ---------------------------------------------------
  free energy    TOTEN  =       340.95858701 eV

  energy without entropy =      340.95858701  energy(sigma->0) =      340.95858701


--------------------------------------------------------------------------------------------------------




----------------------------------------- Iteration    1(   3)  ---------------------------------------


     EDDAV:  cpu time   19.4457: real time   19.4702
       DOS:  cpu time    0.0001: real time    0.0001
    --------------------------------------------
      LOOP:  cpu time   19.4493: real time   19.4765

 eigenvalue-minimisations  :   704
 total energy-change (2. order) :-0.3213779E+03  (-0.3048471E+03)
 number of electron     176.0000000 magnetization      48.0000000
 augmentation part      176.0000000 magnetization      48.0000000

 Free energy of the ion-electron system (eV)
  ---------------------------------------------------
  alpha Z        PSCENC =         6.93407324
  Ewald energy   TEWEN  =     41815.31171437
  -Hartree energ DENC   =    -62040.88136282
  -exchange      EXHF   =         0.00000000
  -V(xc)+E(xc)   XCENC  =       735.66354144
  PAW double counting   =     19635.47487684   -21326.33402971
  entropy T*S    EENTRO =         0.00000000
  eigenvalues    EBANDS =     -1061.55749412
  atomic energy  EATOM  =     22254.96935453
  Solvation  Ediel_sol  =         0.00000000
  ---------------------------------------------------
  free energy    TOTEN  =        19.58067377 eV

  energy without entropy =       19.58067377  energy(sigma->0) =       19.58067377


--------------------------------------------------------------------------------------------------------




----------------------------------------- Iteration    1(   4)  ---------------------------------------


     EDDAV:  cpu time   20.5001: real time   20.5273
       DOS:  cpu time    0.0001: real time    0.0001
    --------------------------------------------
      LOOP:  cpu time   20.5040: real time   20.6077

 eigenvalue-minimisations  :   752
 total energy-change (2. order) :-0.4477959E+02  (-0.3907162E+02)
 number of electron     176.0000000 magnetization      48.0000000
 augmentation part      176.0000000 magnetization      48.0000000

 Free energy of the ion-electron system (eV)
  ---------------------------------------------------
  alpha Z        PSCENC =         6.93407324
  Ewald energy   TEWEN  =     41815.31171437
  -Hartree energ DENC   =    -62040.88136282
  -exchange      EXHF   =         0.00000000
  -V(xc)+E(xc)   XCENC  =       735.66354144
  PAW double counting   =     19635.47487684   -21326.33402971
  entropy T*S    EENTRO =         0.00000000
  eigenvalues    EBANDS =     -1106.33708830
  atomic energy  EATOM  =     22254.96935453
  Solvation  Ediel_sol  =         0.00000000
  ---------------------------------------------------
  free energy    TOTEN  =       -25.19892041 eV

  energy without entropy =      -25.19892041  energy(sigma->0) =      -25.19892041


--------------------------------------------------------------------------------------------------------




----------------------------------------- Iteration    1(   5)  ---------------------------------------


     EDDAV:  cpu time   19.8744: real time   19.9079
       DOS:  cpu time    0.0001: real time    0.0001
    CHARGE:  cpu time    0.6801: real time    0.6805
    MIXING:  cpu time    0.0275: real time    0.0275
    --------------------------------------------
      LOOP:  cpu time   20.5864: real time   20.6230

 eigenvalue-minimisations  :   728
 total energy-change (2. order) :-0.2024723E+01  (-0.1904132E+01)
 number of electron     176.0000739 magnetization      45.4450852
 augmentation part      104.3969978 magnetization      43.2308106

 Broyden mixing:
  rms(total) = 0.70806E+01    rms(broyden)= 0.70793E+01
  rms(prec ) = 0.71205E+01
  weight for this iteration     100.00

 Free energy of the ion-electron system (eV)
  ---------------------------------------------------
  alpha Z        PSCENC =         6.93407324
  Ewald energy   TEWEN  =     41815.31171437
  -Hartree energ DENC   =    -62040.88136282
  -exchange      EXHF   =         0.00000000
  -V(xc)+E(xc)   XCENC  =       735.66354144
  PAW double counting   =     19635.47487684   -21326.33402971
  entropy T*S    EENTRO =        -0.00000000
  eigenvalues    EBANDS =     -1108.36181116
  atomic energy  EATOM  =     22254.96935453
  Solvation  Ediel_sol  =         0.00000000
  ---------------------------------------------------
  free energy    TOTEN  =       -27.22364327 eV

  energy without entropy =      -27.22364327  energy(sigma->0) =      -27.22364327


--------------------------------------------------------------------------------------------------------




----------------------------------------- Iteration    1(   6)  ---------------------------------------


    POTLOK:  cpu time    1.3867: real time    1.3872
    SETDIJ:  cpu time    0.0157: real time    0.0160
     EDDAV:  cpu time   16.5614: real time   16.5846
       DOS:  cpu time    0.0001: real time    0.0001
    CHARGE:  cpu time    0.6663: real time    0.6667
    MIXING:  cpu time    0.0302: real time    0.0302
    --------------------------------------------
      LOOP:  cpu time   18.6635: real time   18.6903

 eigenvalue-minimisations  :   580
 total energy-change (2. order) : 0.1176241E+03  (-0.7344142E+02)
 number of electron     176.0000900 magnetization      43.4496627
 augmentation part      121.6842394 magnetization      30.7738097

 Broyden mixing:
  rms(total) = 0.33982E+01    rms(broyden)= 0.33959E+01
  rms(prec ) = 0.34784E+01
  weight for this iteration     100.00

 eigenvalues of (default mixing * dielectric matrix)
  average eigenvalue GAMMA=   0.9443
  0.9443

 Free energy of the ion-electron system (eV)
  ---------------------------------------------------
  alpha Z        PSCENC =         6.93407324
  Ewald energy   TEWEN  =     41815.31171437
  -Hartree energ DENC   =    -61592.77385352
  -exchange      EXHF   =         0.00000000
  -V(xc)+E(xc)   XCENC  =       804.87634975
  PAW double counting   =     19669.63698474   -21280.32050526
  entropy T*S    EENTRO =         0.00000000
  eigenvalues    EBANDS =     -1588.23367815
  atomic energy  EATOM  =     22254.96935453
  Solvation  Ediel_sol  =         0.00000000
  ---------------------------------------------------
  free energy    TOTEN  =        90.40043969 eV

  energy without entropy =       90.40043969  energy(sigma->0) =       90.40043969


--------------------------------------------------------------------------------------------------------




----------------------------------------- Iteration    1(   7)  ---------------------------------------


    POTLOK:  cpu time    1.3795: real time    1.3808
    SETDIJ:  cpu time    0.0164: real time    0.0164
     EDDAV:  cpu time   17.8966: real time   17.9207
       DOS:  cpu time    0.0001: real time    0.0001
    CHARGE:  cpu time    0.5276: real time    1.0320
    MIXING:  cpu time    0.0324: real time    0.0324
    --------------------------------------------
      LOOP:  cpu time   19.8563: real time   20.3895

 eigenvalue-minimisations  :   640
 total energy-change (2. order) :-0.4102756E+01  (-0.2940091E+02)
 number of electron     176.0000801 magnetization      41.1194994
 augmentation part      113.1052967 magnetization      26.2171210

 Broyden mixing:
  rms(total) = 0.15064E+01    rms(broyden)= 0.15050E+01
  rms(prec ) = 0.15181E+01
  weight for this iteration     100.00

 eigenvalues of (default mixing * dielectric matrix)
  average eigenvalue GAMMA=   0.8744
  1.0723  0.6766

 Free energy of the ion-electron system (eV)
  ---------------------------------------------------
  alpha Z        PSCENC =         6.93407324
  Ewald energy   TEWEN  =     41815.31171437
  -Hartree energ DENC   =    -62007.22535107
  -exchange      EXHF   =         0.00000000
  -V(xc)+E(xc)   XCENC  =       812.00783027
  PAW double counting   =     20309.38123149   -22062.00859151
  entropy T*S    EENTRO =         0.00000000
  eigenvalues    EBANDS =     -1043.07257800
  atomic energy  EATOM  =     22254.96935453
  Solvation  Ediel_sol  =         0.00000000
  ---------------------------------------------------
  free energy    TOTEN  =        86.29768333 eV

  energy without entropy =       86.29768333  energy(sigma->0) =       86.29768333


--------------------------------------------------------------------------------------------------------




----------------------------------------- Iteration    1(   8)  ---------------------------------------


    POTLOK:  cpu time    1.3693: real time    1.3949
    SETDIJ:  cpu time    0.0167: real time    0.0167
     EDDAV:  cpu time   19.2654: real time   19.2926
       DOS:  cpu time    0.0001: real time    0.0001
    CHARGE:  cpu time    0.6739: real time    0.6744
    MIXING:  cpu time    0.0344: real time    0.0344
    --------------------------------------------
      LOOP:  cpu time   21.3631: real time   21.4188

 eigenvalue-minimisations  :   700
 total energy-change (2. order) : 0.1060640E+02  (-0.2938251E+01)
 number of electron     176.0000837 magnetization      39.4500577
 augmentation part      112.8496124 magnetization      24.3652847

 Broyden mixing:
  rms(total) = 0.12111E+01    rms(broyden)= 0.12106E+01
  rms(prec ) = 0.12279E+01
  weight for this iteration     100.00

 eigenvalues of (default mixing * dielectric matrix)
  average eigenvalue GAMMA=   0.8497
  1.1662  0.6915  0.6915

 Free energy of the ion-electron system (eV)
  ---------------------------------------------------
  alpha Z        PSCENC =         6.93407324
  Ewald energy   TEWEN  =     41815.31171437
  -Hartree energ DENC   =    -62031.93308246
  -exchange      EXHF   =         0.00000000
  -V(xc)+E(xc)   XCENC  =       818.83692180
  PAW double counting   =     20601.86400532   -22349.02594577
  entropy T*S    EENTRO =         0.00000000
  eigenvalues    EBANDS =     -1020.05295466
  atomic energy  EATOM  =     22254.96935453
  Solvation  Ediel_sol  =         0.00000000
  ---------------------------------------------------
  free energy    TOTEN  =        96.90408637 eV

  energy without entropy =       96.90408637  energy(sigma->0) =       96.90408637


--------------------------------------------------------------------------------------------------------




----------------------------------------- Iteration    1(   9)  ---------------------------------------


    POTLOK:  cpu time    1.3821: real time    1.3828
    SETDIJ:  cpu time    0.0158: real time    0.0158
     EDDAV:  cpu time   19.1344: real time   19.1594
       DOS:  cpu time    0.0001: real time    0.0001
    CHARGE:  cpu time    0.6665: real time    0.6670
    MIXING:  cpu time    0.0372: real time    0.0372
    --------------------------------------------
      LOOP:  cpu time   21.2396: real time   21.2686

 eigenvalue-minimisations  :   696
 total energy-change (2. order) :-0.1438174E+02  (-0.9251892E+00)
 number of electron     176.0000813 magnetization      35.4715230
 augmentation part      113.4050229 magnetization      22.0864673

 Broyden mixing:
  rms(total) = 0.95393E+00    rms(broyden)= 0.95308E+00
  rms(prec ) = 0.96239E+00
  weight for this iteration     100.00

 eigenvalues of (default mixing * dielectric matrix)
  average eigenvalue GAMMA=   0.9438
  1.6861  0.8576  0.7439  0.4875

 Free energy of the ion-electron system (eV)
  ---------------------------------------------------
  alpha Z        PSCENC =         6.93407324
  Ewald energy   TEWEN  =     41815.31171437
  -Hartree energ DENC   =    -62023.15810297
  -exchange      EXHF   =         0.00000000
  -V(xc)+E(xc)   XCENC  =       806.72946945
  PAW double counting   =     20686.99680836   -22425.89953276
  entropy T*S    EENTRO =         0.00000000
  eigenvalues    EBANDS =     -1039.36143655
  atomic energy  EATOM  =     22254.96935453
  Solvation  Ediel_sol  =         0.00000000
  ---------------------------------------------------
  free energy    TOTEN  =        82.52234768 eV

  energy without entropy =       82.52234768  energy(sigma->0) =       82.52234768


--------------------------------------------------------------------------------------------------------




----------------------------------------- Iteration    1(  10)  ---------------------------------------


    POTLOK:  cpu time    1.3820: real time    1.3825
    SETDIJ:  cpu time    0.0160: real time    0.0160
     EDDAV:  cpu time   20.7929: real time   20.8269
       DOS:  cpu time    0.0001: real time    0.0001
    CHARGE:  cpu time    0.6653: real time    0.6658
    MIXING:  cpu time    0.0423: real time    0.0423
    --------------------------------------------
      LOOP:  cpu time   22.9022: real time   22.9399

 eigenvalue-minimisations  :   772
 total energy-change (2. order) :-0.2754840E+02  (-0.1664901E+01)
 number of electron     176.0000823 magnetization      33.1717928
 augmentation part      113.2312966 magnetization      20.5656220

 Broyden mixing:
  rms(total) = 0.74981E+00    rms(broyden)= 0.74944E+00
  rms(prec ) = 0.75562E+00
  weight for this iteration     100.00

 eigenvalues of (default mixing * dielectric matrix)
  average eigenvalue GAMMA=   1.0050
  2.0071  1.3130  0.5874  0.5587  0.5587

 Free energy of the ion-electron system (eV)
  ---------------------------------------------------
  alpha Z        PSCENC =         6.93407324
  Ewald energy   TEWEN  =     41815.31171437
  -Hartree energ DENC   =    -62061.13027945
  -exchange      EXHF   =         0.00000000
  -V(xc)+E(xc)   XCENC  =       785.28536373
  PAW double counting   =     20884.78736531   -22615.54490743
  entropy T*S    EENTRO =        -0.00000000
  eigenvalues    EBANDS =     -1015.63873170
  atomic energy  EATOM  =     22254.96935453
  Solvation  Ediel_sol  =         0.00000000
  ---------------------------------------------------
  free energy    TOTEN  =        54.97395259 eV

  energy without entropy =       54.97395259  energy(sigma->0) =       54.97395259


--------------------------------------------------------------------------------------------------------




----------------------------------------- Iteration    1(  11)  ---------------------------------------


    POTLOK:  cpu time    1.3799: real time    1.3810
    SETDIJ:  cpu time    0.0170: real time    0.0173
     EDDAV:  cpu time   19.2980: real time   19.3464
       DOS:  cpu time    0.0001: real time    0.0001
    CHARGE:  cpu time    0.6744: real time    0.6750
    MIXING:  cpu time    0.0452: real time    0.0452
    --------------------------------------------
      LOOP:  cpu time   21.4179: real time   21.4712

 eigenvalue-minimisations  :   704
 total energy-change (2. order) :-0.1772606E+02  (-0.1125064E+01)
 number of electron     176.0000822 magnetization      30.2021442
 augmentation part      113.5929389 magnetization      20.1495260

 Broyden mixing:
  rms(total) = 0.61560E+00    rms(broyden)= 0.61482E+00
  rms(prec ) = 0.61983E+00
  weight for this iteration     100.00

 eigenvalues of (default mixing * dielectric matrix)
  average eigenvalue GAMMA=   1.0311
  2.5292  1.3822  0.6366  0.6366  0.5528  0.4490

 Free energy of the ion-electron system (eV)
  ---------------------------------------------------
  alpha Z        PSCENC =         6.93407324
  Ewald energy   TEWEN  =     41815.31171437
  -Hartree energ DENC   =    -62047.58495698
  -exchange      EXHF   =         0.00000000
  -V(xc)+E(xc)   XCENC  =       771.61742217
  PAW double counting   =     20869.16285453   -22591.23522915
  entropy T*S    EENTRO =        -0.00000000
  eigenvalues    EBANDS =     -1041.92733519
  atomic energy  EATOM  =     22254.96935453
  Solvation  Ediel_sol  =         0.00000000
  ---------------------------------------------------
  free energy    TOTEN  =        37.24789752 eV

  energy without entropy =       37.24789752  energy(sigma->0) =       37.24789752


--------------------------------------------------------------------------------------------------------




----------------------------------------- Iteration    1(  12)  ---------------------------------------


    POTLOK:  cpu time    1.3838: real time    1.3847
    SETDIJ:  cpu time    0.0168: real time    0.0168
     EDDAV:  cpu time   18.5858: real time   18.6187
       DOS:  cpu time    0.0001: real time    0.0001
    CHARGE:  cpu time    0.6632: real time    0.6636
    MIXING:  cpu time    0.0499: real time    0.0500
    --------------------------------------------
      LOOP:  cpu time   20.7029: real time   20.7397

 eigenvalue-minimisations  :   672
 total energy-change (2. order) :-0.1641864E+02  (-0.1122776E+01)
 number of electron     176.0000823 magnetization      25.9775331
 augmentation part      113.4040765 magnetization      16.8882530

 Broyden mixing:
  rms(total) = 0.46580E+00    rms(broyden)= 0.46565E+00
  rms(prec ) = 0.46901E+00
  weight for this iteration     100.00

 eigenvalues of (default mixing * dielectric matrix)
  average eigenvalue GAMMA=   1.1591
  2.9813  1.9262  0.8147  0.8147  0.6507  0.4630  0.4630

 Free energy of the ion-electron system (eV)
  ---------------------------------------------------
  alpha Z        PSCENC =         6.93407324
  Ewald energy   TEWEN  =     41815.31171437
  -Hartree energ DENC   =    -62060.03093145
  -exchange      EXHF   =         0.00000000
  -V(xc)+E(xc)   XCENC  =       759.63848485
  PAW double counting   =     20883.65415386   -22602.67649167
  entropy T*S    EENTRO =         0.00000000
  eigenvalues    EBANDS =     -1036.97109818
  atomic energy  EATOM  =     22254.96935453
  Solvation  Ediel_sol  =         0.00000000
  ---------------------------------------------------
  free energy    TOTEN  =        20.82925954 eV

  energy without entropy =       20.82925954  energy(sigma->0) =       20.82925954


--------------------------------------------------------------------------------------------------------




----------------------------------------- Iteration    1(  13)  ---------------------------------------


    POTLOK:  cpu time    1.3820: real time    1.3826
    SETDIJ:  cpu time    0.0161: real time    0.0161
     EDDAV:  cpu time   19.8248: real time   19.8507
       DOS:  cpu time    0.0001: real time    0.0001
    CHARGE:  cpu time    0.6727: real time    0.6731
    MIXING:  cpu time    0.0541: real time    0.0541
    --------------------------------------------
      LOOP:  cpu time   21.9533: real time   21.9827

 eigenvalue-minimisations  :   732
 total energy-change (2. order) :-0.2577494E+02  (-0.1975060E+01)
 number of electron     176.0000821 magnetization      23.0065487
 augmentation part      112.8752182 magnetization      15.2613460

 Broyden mixing:
  rms(total) = 0.36851E+00    rms(broyden)= 0.36830E+00
  rms(prec ) = 0.37437E+00
  weight for this iteration     100.00

 eigenvalues of (default mixing * dielectric matrix)
  average eigenvalue GAMMA=   1.2411
  3.7538  2.3362  0.7787  0.7787  0.7849  0.5497  0.5124  0.4347

 Free energy of the ion-electron system (eV)
  ---------------------------------------------------
  alpha Z        PSCENC =         6.93407324
  Ewald energy   TEWEN  =     41815.31171437
  -Hartree energ DENC   =    -62064.89094877
  -exchange      EXHF   =         0.00000000
  -V(xc)+E(xc)   XCENC  =       739.83158842
  PAW double counting   =     20826.55643701   -22544.12244534
  entropy T*S    EENTRO =         0.00000000
  eigenvalues    EBANDS =     -1039.53545623
  atomic energy  EATOM  =     22254.96935453
  Solvation  Ediel_sol  =         0.00000000
  ---------------------------------------------------
  free energy    TOTEN  =        -4.94568278 eV

  energy without entropy =       -4.94568278  energy(sigma->0) =       -4.94568278


--------------------------------------------------------------------------------------------------------




----------------------------------------- Iteration    1(  14)  ---------------------------------------


    POTLOK:  cpu time    1.3800: real time    1.3811
    SETDIJ:  cpu time    0.0167: real time    0.0167
     EDDAV:  cpu time   20.6044: real time   20.6416
       DOS:  cpu time    0.0001: real time    0.0001
    CHARGE:  cpu time    0.6743: real time    0.6747
    MIXING:  cpu time    0.0604: real time    0.0604
    --------------------------------------------
      LOOP:  cpu time   22.7396: real time   22.7810

 eigenvalue-minimisations  :   760
 total energy-change (2. order) :-0.1546998E+02  (-0.1066380E+01)
 number of electron     176.0000815 magnetization      20.8574991
 augmentation part      112.7638583 magnetization      15.6895715

 Broyden mixing:
  rms(total) = 0.35264E+00    rms(broyden)= 0.35185E+00
  rms(prec ) = 0.35962E+00
  weight for this iteration     100.00

 eigenvalues of (default mixing * dielectric matrix)
  average eigenvalue GAMMA=   1.2250
  4.3378  2.3914  0.9529  0.7599  0.7599  0.5393  0.5393  0.4497  0.2945

 Free energy of the ion-electron system (eV)
  ---------------------------------------------------
  alpha Z        PSCENC =         6.93407324
  Ewald energy   TEWEN  =     41815.31171437
  -Hartree energ DENC   =    -62046.15895758
  -exchange      EXHF   =         0.00000000
  -V(xc)+E(xc)   XCENC  =       727.35144501
  PAW double counting   =     20758.36474243   -22472.78158261
  entropy T*S    EENTRO =         0.00000000
  eigenvalues    EBANDS =     -1064.40645124
  atomic energy  EATOM  =     22254.96935453
  Solvation  Ediel_sol  =         0.00000000
  ---------------------------------------------------
  free energy    TOTEN  =       -20.41566185 eV

  energy without entropy =      -20.41566185  energy(sigma->0) =      -20.41566185


--------------------------------------------------------------------------------------------------------




----------------------------------------- Iteration    1(  15)  ---------------------------------------


    POTLOK:  cpu time    1.3806: real time    1.3818
    SETDIJ:  cpu time    0.0174: real time    0.0174
     EDDAV:  cpu time   19.3116: real time   19.3344
       DOS:  cpu time    0.0001: real time    0.0001
    CHARGE:  cpu time    0.6705: real time    0.6731
    MIXING:  cpu time    0.0691: real time    0.0691
    --------------------------------------------
      LOOP:  cpu time   21.4526: real time   21.4805

 eigenvalue-minimisations  :   704
 total energy-change (2. order) :-0.5368883E+01  (-0.4027936E+00)
 number of electron     176.0000813 magnetization      19.1401591
 augmentation part      112.7855330 magnetization      14.5465062

 Broyden mixing:
  rms(total) = 0.25570E+00    rms(broyden)= 0.25561E+00
  rms(prec ) = 0.26067E+00
  weight for this iteration     100.00

 eigenvalues of (default mixing * dielectric matrix)
  average eigenvalue GAMMA=   1.2672
  4.8739  2.5042  0.9328  0.9328  0.7337  0.7337  0.5260  0.5260  0.5124  0.3968

 Free energy of the ion-electron system (eV)
  ---------------------------------------------------
  alpha Z        PSCENC =         6.93407324
  Ewald energy   TEWEN  =     41815.31171437
  -Hartree energ DENC   =    -62040.90759849
  -exchange      EXHF   =         0.00000000
  -V(xc)+E(xc)   XCENC  =       723.05922022
  PAW double counting   =     20742.18054872   -22455.41091207
  entropy T*S    EENTRO =         0.00000000
  eigenvalues    EBANDS =     -1071.92094507
  atomic energy  EATOM  =     22254.96935453
  Solvation  Ediel_sol  =         0.00000000
  ---------------------------------------------------
  free energy    TOTEN  =       -25.78454455 eV

  energy without entropy =      -25.78454455  energy(sigma->0) =      -25.78454455


--------------------------------------------------------------------------------------------------------




----------------------------------------- Iteration    1(  16)  ---------------------------------------


    POTLOK:  cpu time    1.3782: real time    1.3791
    SETDIJ:  cpu time    0.0164: real time    0.0164
     EDDAV:  cpu time   20.5857: real time   20.6197
       DOS:  cpu time    0.0001: real time    0.0001
    CHARGE:  cpu time    0.6753: real time    0.6758
    MIXING:  cpu time    0.0724: real time    0.0724
    --------------------------------------------
      LOOP:  cpu time   22.7316: real time   22.7698

 eigenvalue-minimisations  :   760
 total energy-change (2. order) :-0.4147251E+01  (-0.2024190E+00)
 number of electron     176.0000819 magnetization      17.1285598
 augmentation part      112.9425760 magnetization      14.5454184

 Broyden mixing:
  rms(total) = 0.29988E+00    rms(broyden)= 0.29907E+00
  rms(prec ) = 0.30726E+00
  weight for this iteration     100.00

 eigenvalues of (default mixing * dielectric matrix)
  average eigenvalue GAMMA=   1.2081
  5.2163  2.4606  0.9630  0.9630  0.7395  0.7395  0.5552  0.5552  0.4980  0.4123
  0.1869

 Free energy of the ion-electron system (eV)
  ---------------------------------------------------
  alpha Z        PSCENC =         6.93407324
  Ewald energy   TEWEN  =     41815.31171437
  -Hartree energ DENC   =    -62029.06078184
  -exchange      EXHF   =         0.00000000
  -V(xc)+E(xc)   XCENC  =       719.54928563
  PAW double counting   =     20714.47777326   -22426.42015224
  entropy T*S    EENTRO =         0.00000000
  eigenvalues    EBANDS =     -1085.69306207
  atomic energy  EATOM  =     22254.96935453
  Solvation  Ediel_sol  =         0.00000000
  ---------------------------------------------------
  free energy    TOTEN  =       -29.93179513 eV

  energy without entropy =      -29.93179513  energy(sigma->0) =      -29.93179513


--------------------------------------------------------------------------------------------------------




----------------------------------------- Iteration    1(  17)  ---------------------------------------


    POTLOK:  cpu time    1.3811: real time    1.3844
    SETDIJ:  cpu time    0.0171: real time    0.0171
     EDDAV:  cpu time   21.2972: real time   21.3224
       DOS:  cpu time    0.0001: real time    0.0001
    CHARGE:  cpu time    0.6716: real time    0.6721
    MIXING:  cpu time    0.0791: real time    0.0791
    --------------------------------------------
      LOOP:  cpu time   23.4496: real time   23.4812

 eigenvalue-minimisations  :   792
 total energy-change (2. order) :-0.2083996E+01  (-0.7699076E-01)
 number of electron     176.0000817 magnetization      14.0639524
 augmentation part      112.9985685 magnetization      11.7377841

 Broyden mixing:
  rms(total) = 0.21002E+00    rms(broyden)= 0.20996E+00
  rms(prec ) = 0.21484E+00
  weight for this iteration     100.00

 eigenvalues of (default mixing * dielectric matrix)
  average eigenvalue GAMMA=   1.3664
  6.7890  2.2343  1.6300  1.0359  0.8422  0.8422  0.6355  0.6355  0.5097  0.4453
  0.4453  0.3516

 Free energy of the ion-electron system (eV)
  ---------------------------------------------------
  alpha Z        PSCENC =         6.93407324
  Ewald energy   TEWEN  =     41815.31171437
  -Hartree energ DENC   =    -62026.42552919
  -exchange      EXHF   =         0.00000000
  -V(xc)+E(xc)   XCENC  =       717.66007394
  PAW double counting   =     20706.40470258   -22418.64274166
  entropy T*S    EENTRO =         0.00000000
  eigenvalues    EBANDS =     -1088.22743867
  atomic energy  EATOM  =     22254.96935453
  Solvation  Ediel_sol  =         0.00000000
  ---------------------------------------------------
  free energy    TOTEN  =       -32.01579087 eV

  energy without entropy =      -32.01579087  energy(sigma->0) =      -32.01579087


--------------------------------------------------------------------------------------------------------




----------------------------------------- Iteration    1(  18)  ---------------------------------------


    POTLOK:  cpu time    1.3848: real time    1.3856
    SETDIJ:  cpu time    0.0160: real time    0.0160
     EDDAV:  cpu time   19.5084: real time   19.5402
       DOS:  cpu time    0.0001: real time    0.0001
    CHARGE:  cpu time    0.6688: real time    0.6690
    MIXING:  cpu time    0.0846: real time    0.0846
    --------------------------------------------
      LOOP:  cpu time   21.6663: real time   21.7002

 eigenvalue-minimisations  :   712
 total energy-change (2. order) :-0.3520101E+01  (-0.1119331E+00)
 number of electron     176.0000817 magnetization      11.8181098
 augmentation part      112.9352734 magnetization       9.7442359

 Broyden mixing:
  rms(total) = 0.13177E+00    rms(broyden)= 0.13173E+00
  rms(prec ) = 0.13420E+00
  weight for this iteration     100.00

 eigenvalues of (default mixing * dielectric matrix)
  average eigenvalue GAMMA=   1.4217
  7.8942  2.0660  2.0660  0.9418  0.9418  0.7850  0.7850  0.6537  0.5696  0.5696
  0.4264  0.4264  0.3571

 Free energy of the ion-electron system (eV)
  ---------------------------------------------------
  alpha Z        PSCENC =         6.93407324
  Ewald energy   TEWEN  =     41815.31171437
  -Hartree energ DENC   =    -62022.38280435
  -exchange      EXHF   =         0.00000000
  -V(xc)+E(xc)   XCENC  =       714.48254650
  PAW double counting   =     20685.62330512   -22400.28563033
  entropy T*S    EENTRO =         0.00000000
  eigenvalues    EBANDS =     -1090.18845086
  atomic energy  EATOM  =     22254.96935453
  Solvation  Ediel_sol  =         0.00000000
  ---------------------------------------------------
  free energy    TOTEN  =       -35.53589179 eV

  energy without entropy =      -35.53589179  energy(sigma->0) =      -35.53589179


--------------------------------------------------------------------------------------------------------




----------------------------------------- Iteration    1(  19)  ---------------------------------------


    POTLOK:  cpu time    1.3825: real time    1.3834
    SETDIJ:  cpu time    0.0169: real time    0.0169
     EDDAV:  cpu time   20.5525: real time   20.5842
       DOS:  cpu time    0.0001: real time    0.0001
    CHARGE:  cpu time    0.6681: real time    0.6685
    MIXING:  cpu time    0.0915: real time    0.0917
    --------------------------------------------
      LOOP:  cpu time   22.7153: real time   22.7512

 eigenvalue-minimisations  :   760
 total energy-change (2. order) :-0.1941791E+01  (-0.4567623E-01)
 number of electron     176.0000815 magnetization       9.9786947
 augmentation part      112.9060453 magnetization       8.0379100

 Broyden mixing:
  rms(total) = 0.10364E+00    rms(broyden)= 0.10361E+00
  rms(prec ) = 0.10609E+00
  weight for this iteration     100.00

 eigenvalues of (default mixing * dielectric matrix)
  average eigenvalue GAMMA=   1.5140
  8.8690  2.3874  2.3874  1.0862  1.0862  0.8953  0.8953  0.6146  0.6146  0.6275
  0.5159  0.4327  0.4327  0.3515

 Free energy of the ion-electron system (eV)
  ---------------------------------------------------
  alpha Z        PSCENC =         6.93407324
  Ewald energy   TEWEN  =     41815.31171437
  -Hartree energ DENC   =    -62017.51658781
  -exchange      EXHF   =         0.00000000
  -V(xc)+E(xc)   XCENC  =       712.66518889
  PAW double counting   =     20670.92654099   -22386.64238968
  entropy T*S    EENTRO =         0.00000000
  eigenvalues    EBANDS =     -1094.12557778
  atomic energy  EATOM  =     22254.96935453
  Solvation  Ediel_sol  =         0.00000000
  ---------------------------------------------------
  free energy    TOTEN  =       -37.47768325 eV

  energy without entropy =      -37.47768325  energy(sigma->0) =      -37.47768325


--------------------------------------------------------------------------------------------------------




----------------------------------------- Iteration    1(  20)  ---------------------------------------


    POTLOK:  cpu time    1.3845: real time    1.3851
    SETDIJ:  cpu time    0.0163: real time    0.0163
     EDDAV:  cpu time   18.6395: real time   18.6630
       DOS:  cpu time    0.0001: real time    0.0001
    CHARGE:  cpu time    0.6709: real time    0.6713
    MIXING:  cpu time    0.1069: real time    0.1069
    --------------------------------------------
      LOOP:  cpu time   20.8217: real time   20.8488

 eigenvalue-minimisations  :   672
 total energy-change (2. order) :-0.1161800E+01  (-0.2176764E-01)
 number of electron     176.0000817 magnetization       9.1103642
 augmentation part      112.9254414 magnetization       7.2055245

 Broyden mixing:
  rms(total) = 0.84562E-01    rms(broyden)= 0.84550E-01
  rms(prec ) = 0.86145E-01
  weight for this iteration     100.00

 eigenvalues of (default mixing * dielectric matrix)
  average eigenvalue GAMMA=   1.5076
  9.1797  2.8820  1.9531  1.3873  1.0713  1.0713  0.8152  0.8152  0.6152  0.6152
  0.5037  0.5037  0.4245  0.4245  0.3523

 Free energy of the ion-electron system (eV)
  ---------------------------------------------------
  alpha Z        PSCENC =         6.93407324
  Ewald energy   TEWEN  =     41815.31171437
  -Hartree energ DENC   =    -62009.55029236
  -exchange      EXHF   =         0.00000000
  -V(xc)+E(xc)   XCENC  =       711.45861769
  PAW double counting   =     20657.24437546   -22373.43058793
  entropy T*S    EENTRO =         0.00000000
  eigenvalues    EBANDS =     -1101.57673842
  atomic energy  EATOM  =     22254.96935453
  Solvation  Ediel_sol  =         0.00000000
  ---------------------------------------------------
  free energy    TOTEN  =       -38.63948342 eV

  energy without entropy =      -38.63948342  energy(sigma->0) =      -38.63948342


--------------------------------------------------------------------------------------------------------




----------------------------------------- Iteration    1(  21)  ---------------------------------------


    POTLOK:  cpu time    1.3759: real time    1.3838
    SETDIJ:  cpu time    0.0167: real time    0.0167
     EDDAV:  cpu time   18.8343: real time   19.1594
       DOS:  cpu time    0.0001: real time    0.0001
    CHARGE:  cpu time    0.6704: real time    0.6708
    MIXING:  cpu time    0.1088: real time    0.1088
    --------------------------------------------
      LOOP:  cpu time   21.0097: real time   21.3459

 eigenvalue-minimisations  :   676
 total energy-change (2. order) :-0.5840377E+00  (-0.5407088E-02)
 number of electron     176.0000817 magnetization       7.6912423
 augmentation part      112.9540738 magnetization       5.7795066

 Broyden mixing:
  rms(total) = 0.61651E-01    rms(broyden)= 0.61642E-01
  rms(prec ) = 0.62941E-01
  weight for this iteration     100.00

 eigenvalues of (default mixing * dielectric matrix)
  average eigenvalue GAMMA=   1.5853
  9.5321  3.7915  2.0150  2.0150  1.0490  1.0490  0.8881  0.8881  0.6443  0.6443
  0.6240  0.5056  0.5056  0.4306  0.4306  0.3520

 Free energy of the ion-electron system (eV)
  ---------------------------------------------------
  alpha Z        PSCENC =         6.93407324
  Ewald energy   TEWEN  =     41815.31171437
  -Hartree energ DENC   =    -62002.66690715
  -exchange      EXHF   =         0.00000000
  -V(xc)+E(xc)   XCENC  =       710.81285484
  PAW double counting   =     20649.64918148   -22365.55005475
  entropy T*S    EENTRO =         0.00000000
  eigenvalues    EBANDS =     -1108.68373772
  atomic energy  EATOM  =     22254.96935453
  Solvation  Ediel_sol  =         0.00000000
  ---------------------------------------------------
  free energy    TOTEN  =       -39.22352116 eV

  energy without entropy =      -39.22352116  energy(sigma->0) =      -39.22352116


--------------------------------------------------------------------------------------------------------




----------------------------------------- Iteration    1(  22)  ---------------------------------------


    POTLOK:  cpu time    1.3815: real time    1.3838
    SETDIJ:  cpu time    0.0157: real time    0.0157
     EDDAV:  cpu time   19.5175: real time   19.5488
       DOS:  cpu time    0.0001: real time    0.0001
    CHARGE:  cpu time    0.6741: real time    0.6743
    MIXING:  cpu time    0.1168: real time    0.1169
    --------------------------------------------
      LOOP:  cpu time   21.7094: real time   21.7458

 eigenvalue-minimisations  :   712
 total energy-change (2. order) :-0.7868424E+00  (-0.5285573E-02)
 number of electron     176.0000816 magnetization       6.6774526
 augmentation part      112.9263055 magnetization       4.7524056

 Broyden mixing:
  rms(total) = 0.48440E-01    rms(broyden)= 0.48432E-01
  rms(prec ) = 0.49178E-01
  weight for this iteration     100.00

 eigenvalues of (default mixing * dielectric matrix)
  average eigenvalue GAMMA=   1.6006
 10.1068  4.1259  2.0786  2.0786  1.2421  0.9528  0.9528  0.8495  0.8495  0.6161
  0.6161  0.5344  0.5344  0.3519  0.4331  0.4331  0.4540

 Free energy of the ion-electron system (eV)
  ---------------------------------------------------
  alpha Z        PSCENC =         6.93407324
  Ewald energy   TEWEN  =     41815.31171437
  -Hartree energ DENC   =    -61995.67080094
  -exchange      EXHF   =         0.00000000
  -V(xc)+E(xc)   XCENC  =       710.06256728
  PAW double counting   =     20647.24359046   -22363.40652892
  entropy T*S    EENTRO =         0.00000000
  eigenvalues    EBANDS =     -1115.45433355
  atomic energy  EATOM  =     22254.96935453
  Solvation  Ediel_sol  =         0.00000000
  ---------------------------------------------------
  free energy    TOTEN  =       -40.01036354 eV

  energy without entropy =      -40.01036354  energy(sigma->0) =      -40.01036354


--------------------------------------------------------------------------------------------------------




----------------------------------------- Iteration    1(  23)  ---------------------------------------


    POTLOK:  cpu time    1.3791: real time    1.3806
    SETDIJ:  cpu time    0.0172: real time    0.0172
     EDDAV:  cpu time   19.3498: real time   19.3778
       DOS:  cpu time    0.0001: real time    0.0001
    CHARGE:  cpu time    0.6722: real time    0.6725
    MIXING:  cpu time    0.1242: real time    0.1242
    --------------------------------------------
      LOOP:  cpu time   21.5463: real time   21.5788

 eigenvalue-minimisations  :   704
 total energy-change (2. order) :-0.3804062E+00  (-0.1553727E-02)
 number of electron     176.0000816 magnetization       5.5947904
 augmentation part      112.9160786 magnetization       3.6849871

 Broyden mixing:
  rms(total) = 0.36599E-01    rms(broyden)= 0.36595E-01
  rms(prec ) = 0.37121E-01
  weight for this iteration     100.00

 eigenvalues of (default mixing * dielectric matrix)
  average eigenvalue GAMMA=   1.6217
 10.5743  4.4519  2.1708  1.7472  1.7472  1.0040  1.0040  0.8890  0.8890  0.6985
  0.6186  0.6186  0.6031  0.3519  0.5057  0.4312  0.4312  0.4540

 Free energy of the ion-electron system (eV)
  ---------------------------------------------------
  alpha Z        PSCENC =         6.93407324
  Ewald energy   TEWEN  =     41815.31171437
  -Hartree energ DENC   =    -61992.72728259
  -exchange      EXHF   =         0.00000000
  -V(xc)+E(xc)   XCENC  =       709.67071548
  PAW double counting   =     20650.42182744   -22366.76940494
  entropy T*S    EENTRO =         0.00000000
  eigenvalues    EBANDS =     -1118.20176727
  atomic energy  EATOM  =     22254.96935453
  Solvation  Ediel_sol  =         0.00000000
  ---------------------------------------------------
  free energy    TOTEN  =       -40.39076974 eV

  energy without entropy =      -40.39076974  energy(sigma->0) =      -40.39076974


--------------------------------------------------------------------------------------------------------




----------------------------------------- Iteration    1(  24)  ---------------------------------------


    POTLOK:  cpu time    1.3805: real time    1.3815
    SETDIJ:  cpu time    0.0162: real time    0.0162
     EDDAV:  cpu time   20.9453: real time   20.9711
       DOS:  cpu time    0.0001: real time    0.0001
    CHARGE:  cpu time    0.6705: real time    0.6715
    MIXING:  cpu time    0.1331: real time    0.1331
    --------------------------------------------
      LOOP:  cpu time   23.1493: real time   23.1796

 eigenvalue-minimisations  :   776
 total energy-change (2. order) :-0.3620151E+00  (-0.8903466E-03)
 number of electron     176.0000816 magnetization       4.6961402
 augmentation part      112.9224562 magnetization       2.7975682

 Broyden mixing:
  rms(total) = 0.28345E-01    rms(broyden)= 0.28342E-01
  rms(prec ) = 0.28743E-01
  weight for this iteration     100.00

 eigenvalues of (default mixing * dielectric matrix)
  average eigenvalue GAMMA=   1.6674
 10.9357  4.9918  2.7161  1.8195  1.8195  1.2708  0.9286  0.9286  0.8670  0.8670
  0.6207  0.6207  0.5822  0.3520  0.4308  0.4308  0.5132  0.5132  0.4719

 Free energy of the ion-electron system (eV)
  ---------------------------------------------------
  alpha Z        PSCENC =         6.93407324
  Ewald energy   TEWEN  =     41815.31171437
  -Hartree energ DENC   =    -61988.49651746
  -exchange      EXHF   =         0.00000000
  -V(xc)+E(xc)   XCENC  =       709.26342867
  PAW double counting   =     20653.79761117   -22370.06135846
  entropy T*S    EENTRO =         0.00000000
  eigenvalues    EBANDS =     -1122.47109092
  atomic energy  EATOM  =     22254.96935453
  Solvation  Ediel_sol  =         0.00000000
  ---------------------------------------------------
  free energy    TOTEN  =       -40.75278486 eV

  energy without entropy =      -40.75278486  energy(sigma->0) =      -40.75278486


--------------------------------------------------------------------------------------------------------




----------------------------------------- Iteration    1(  25)  ---------------------------------------


    POTLOK:  cpu time    1.3846: real time    1.3857
    SETDIJ:  cpu time    0.0157: real time    0.0157
     EDDAV:  cpu time   18.9868: real time   19.0238
       DOS:  cpu time    0.0001: real time    0.0001
    CHARGE:  cpu time    0.6717: real time    0.6718
    MIXING:  cpu time    0.1439: real time    0.1445
    --------------------------------------------
      LOOP:  cpu time   21.2061: real time   21.2473

 eigenvalue-minimisations  :   688
 total energy-change (2. order) :-0.3273734E+00  (-0.3833928E-03)
 number of electron     176.0000817 magnetization       3.9332093
 augmentation part      112.9234708 magnetization       2.0384561

 Broyden mixing:
  rms(total) = 0.20817E-01    rms(broyden)= 0.20815E-01
  rms(prec ) = 0.21165E-01
  weight for this iteration     100.00

 eigenvalues of (default mixing * dielectric matrix)
  average eigenvalue GAMMA=   1.7216
 11.2730  5.8324  3.0875  1.9376  1.9376  1.3564  0.9401  0.9401  0.8873  0.8873
  0.8297  0.6244  0.6244  0.6042  0.3520  0.4315  0.4315  0.4961  0.4961  0.4632

 Free energy of the ion-electron system (eV)
  ---------------------------------------------------
  alpha Z        PSCENC =         6.93407324
  Ewald energy   TEWEN  =     41815.31171437
  -Hartree energ DENC   =    -61985.48522154
  -exchange      EXHF   =         0.00000000
  -V(xc)+E(xc)   XCENC  =       708.91560588
  PAW double counting   =     20657.51472434   -22373.70638463
  entropy T*S    EENTRO =         0.00000000
  eigenvalues    EBANDS =     -1125.53402445
  atomic energy  EATOM  =     22254.96935453
  Solvation  Ediel_sol  =         0.00000000
  ---------------------------------------------------
  free energy    TOTEN  =       -41.08015825 eV

  energy without entropy =      -41.08015825  energy(sigma->0) =      -41.08015825


--------------------------------------------------------------------------------------------------------




----------------------------------------- Iteration    1(  26)  ---------------------------------------


    POTLOK:  cpu time    1.3817: real time    1.3825
    SETDIJ:  cpu time    0.0173: real time    0.0173
     EDDAV:  cpu time   19.8915: real time   19.9166
       DOS:  cpu time    0.0001: real time    0.0001
    CHARGE:  cpu time    0.6581: real time    0.6587
    MIXING:  cpu time    0.1594: real time    0.1594
    --------------------------------------------
      LOOP:  cpu time   22.1119: real time   22.1411

 eigenvalue-minimisations  :   728
 total energy-change (2. order) :-0.2823860E+00  (-0.2952890E-03)
 number of electron     176.0000817 magnetization       3.4125850
 augmentation part      112.9216100 magnetization       1.5191124

 Broyden mixing:
  rms(total) = 0.16307E-01    rms(broyden)= 0.16305E-01
  rms(prec ) = 0.16600E-01
  weight for this iteration     100.00

 eigenvalues of (default mixing * dielectric matrix)
  average eigenvalue GAMMA=   1.7529
 11.4467  6.6702  3.1882  2.1649  1.7167  1.7167  1.1808  0.9294  0.9294  0.8771
  0.8771  0.6286  0.6286  0.5855  0.5855  0.3520  0.4319  0.4319  0.5138  0.4866
  0.4684

 Free energy of the ion-electron system (eV)
  ---------------------------------------------------
  alpha Z        PSCENC =         6.93407324
  Ewald energy   TEWEN  =     41815.31171437
  -Hartree energ DENC   =    -61983.65551563
  -exchange      EXHF   =         0.00000000
  -V(xc)+E(xc)   XCENC  =       708.62768337
  PAW double counting   =     20660.15595220   -22376.34523139
  entropy T*S    EENTRO =         0.00000000
  eigenvalues    EBANDS =     -1127.36057490
  atomic energy  EATOM  =     22254.96935453
  Solvation  Ediel_sol  =         0.00000000
  ---------------------------------------------------
  free energy    TOTEN  =       -41.36254422 eV

  energy without entropy =      -41.36254422  energy(sigma->0) =      -41.36254422


--------------------------------------------------------------------------------------------------------




----------------------------------------- Iteration    1(  27)  ---------------------------------------


    POTLOK:  cpu time    1.3799: real time    1.3810
    SETDIJ:  cpu time    0.0164: real time    0.0164
     EDDAV:  cpu time   20.2277: real time   20.2631
       DOS:  cpu time    0.0001: real time    0.0001
    CHARGE:  cpu time    0.6749: real time    0.6754
    MIXING:  cpu time    0.1644: real time    0.1645
    --------------------------------------------
      LOOP:  cpu time   22.4670: real time   22.5068

 eigenvalue-minimisations  :   744
 total energy-change (2. order) :-0.1841841E+00  (-0.2038580E-03)
 number of electron     176.0000817 magnetization       2.9033936
 augmentation part      112.9257656 magnetization       1.0068553

 Broyden mixing:
  rms(total) = 0.12078E-01    rms(broyden)= 0.12076E-01
  rms(prec ) = 0.12281E-01
  weight for this iteration     100.00

 eigenvalues of (default mixing * dielectric matrix)
  average eigenvalue GAMMA=   1.8152
 11.8238  7.7385  3.4847  2.5130  1.7886  1.7886  1.2690  0.9363  0.9363  0.8810
  0.8810  0.8124  0.6251  0.6251  0.6459  0.3520  0.5206  0.5206  0.4319  0.4319
  0.4643  0.4643

 Free energy of the ion-electron system (eV)
  ---------------------------------------------------
  alpha Z        PSCENC =         6.93407324
  Ewald energy   TEWEN  =     41815.31171437
  -Hartree energ DENC   =    -61982.28408711
  -exchange      EXHF   =         0.00000000
  -V(xc)+E(xc)   XCENC  =       708.43586501
  PAW double counting   =     20660.11630314   -22376.23975413
  entropy T*S    EENTRO =         0.00000000
  eigenvalues    EBANDS =     -1128.79019734
  atomic energy  EATOM  =     22254.96935453
  Solvation  Ediel_sol  =         0.00000000
  ---------------------------------------------------
  free energy    TOTEN  =       -41.54672829 eV

  energy without entropy =      -41.54672829  energy(sigma->0) =      -41.54672829


--------------------------------------------------------------------------------------------------------




----------------------------------------- Iteration    1(  28)  ---------------------------------------


    POTLOK:  cpu time    1.3813: real time    1.3826
    SETDIJ:  cpu time    0.0170: real time    0.0170
     EDDAV:  cpu time   20.5004: real time   20.5309
       DOS:  cpu time    0.0001: real time    0.0001
    CHARGE:  cpu time    0.6734: real time    0.6738
    MIXING:  cpu time    0.1753: real time    0.1753
    --------------------------------------------
      LOOP:  cpu time   22.7511: real time   22.7861

 eigenvalue-minimisations  :   756
 total energy-change (2. order) :-0.1155421E+00  (-0.9736357E-04)
 number of electron     176.0000817 magnetization       2.5829736
 augmentation part      112.9291330 magnetization       0.6852327

 Broyden mixing:
  rms(total) = 0.87780E-02    rms(broyden)= 0.87770E-02
  rms(prec ) = 0.89797E-02
  weight for this iteration     100.00

 eigenvalues of (default mixing * dielectric matrix)
  average eigenvalue GAMMA=   1.8616
 12.3985  8.2899  3.9326  2.3635  2.0637  1.6365  1.6365  1.1381  0.9448  0.9448
  0.8762  0.8762  0.6284  0.6284  0.6392  0.6392  0.3520  0.4315  0.4315  0.5061
  0.5061  0.4968  0.4569

 Free energy of the ion-electron system (eV)
  ---------------------------------------------------
  alpha Z        PSCENC =         6.93407324
  Ewald energy   TEWEN  =     41815.31171437
  -Hartree energ DENC   =    -61981.38726182
  -exchange      EXHF   =         0.00000000
  -V(xc)+E(xc)   XCENC  =       708.31467556
  PAW double counting   =     20659.94217331   -22376.03084681
  entropy T*S    EENTRO =         0.00000000
  eigenvalues    EBANDS =     -1129.71615271
  atomic energy  EATOM  =     22254.96935453
  Solvation  Ediel_sol  =         0.00000000
  ---------------------------------------------------
  free energy    TOTEN  =       -41.66227034 eV

  energy without entropy =      -41.66227034  energy(sigma->0) =      -41.66227034


--------------------------------------------------------------------------------------------------------




----------------------------------------- Iteration    1(  29)  ---------------------------------------


    POTLOK:  cpu time    1.3774: real time    1.3788
    SETDIJ:  cpu time    0.0156: real time    0.0156
     EDDAV:  cpu time   21.2922: real time   21.3288
       DOS:  cpu time    0.0001: real time    0.0001
    CHARGE:  cpu time    0.6732: real time    0.6736
    MIXING:  cpu time    0.1834: real time    0.1834
    --------------------------------------------
      LOOP:  cpu time   23.5453: real time   23.5861

 eigenvalue-minimisations  :   792
 total energy-change (2. order) :-0.5126199E-01  (-0.3234238E-04)
 number of electron     176.0000817 magnetization       2.3783618
 augmentation part      112.9257980 magnetization       0.4816421

 Broyden mixing:
  rms(total) = 0.58700E-02    rms(broyden)= 0.58692E-02
  rms(prec ) = 0.59931E-02
  weight for this iteration     100.00

 eigenvalues of (default mixing * dielectric matrix)
  average eigenvalue GAMMA=   1.8942
 12.8749  8.7141  4.3541  2.6631  2.0714  1.6279  1.6279  1.3924  0.9399  0.9399
  0.8838  0.8838  0.7344  0.7344  0.6229  0.6229  0.6054  0.3520  0.4316  0.4316
  0.5076  0.5076  0.4681  0.4681

 Free energy of the ion-electron system (eV)
  ---------------------------------------------------
  alpha Z        PSCENC =         6.93407324
  Ewald energy   TEWEN  =     41815.31171437
  -Hartree energ DENC   =    -61981.42886382
  -exchange      EXHF   =         0.00000000
  -V(xc)+E(xc)   XCENC  =       708.27231378
  PAW double counting   =     20659.90526121   -22376.05370697
  entropy T*S    EENTRO =         0.00000000
  eigenvalues    EBANDS =     -1129.62367867
  atomic energy  EATOM  =     22254.96935453
  Solvation  Ediel_sol  =         0.00000000
  ---------------------------------------------------
  free energy    TOTEN  =       -41.71353234 eV

  energy without entropy =      -41.71353234  energy(sigma->0) =      -41.71353234


--------------------------------------------------------------------------------------------------------




----------------------------------------- Iteration    1(  30)  ---------------------------------------


    POTLOK:  cpu time    1.3843: real time    1.3852
    SETDIJ:  cpu time    0.0162: real time    0.0162
     EDDAV:  cpu time   19.2249: real time   19.2538
       DOS:  cpu time    0.0001: real time    0.0001
    CHARGE:  cpu time    0.6730: real time    0.6735
    MIXING:  cpu time    0.1909: real time    0.1910
    --------------------------------------------
      LOOP:  cpu time   21.4932: real time   21.5257

 eigenvalue-minimisations  :   696
 total energy-change (2. order) :-0.4840071E-01  (-0.2017780E-04)
 number of electron     176.0000817 magnetization       2.2142288
 augmentation part      112.9239827 magnetization       0.3192722

 Broyden mixing:
  rms(total) = 0.43877E-02    rms(broyden)= 0.43870E-02
  rms(prec ) = 0.44779E-02
  weight for this iteration     100.00

 eigenvalues of (default mixing * dielectric matrix)
  average eigenvalue GAMMA=   1.9345
 13.3751  9.0752  4.8392  2.8399  2.3247  1.6508  1.6508  1.6222  1.0684  0.9445
  0.9445  0.8735  0.8735  0.6278  0.6278  0.6406  0.6406  0.3520  0.5844  0.4317
  0.4317  0.5073  0.5073  0.4639  0.4639

 Free energy of the ion-electron system (eV)
  ---------------------------------------------------
  alpha Z        PSCENC =         6.93407324
  Ewald energy   TEWEN  =     41815.31171437
  -Hartree energ DENC   =    -61981.53783904
  -exchange      EXHF   =         0.00000000
  -V(xc)+E(xc)   XCENC  =       708.23115237
  PAW double counting   =     20659.13500809   -22375.31032276
  entropy T*S    EENTRO =         0.00000000
  eigenvalues    EBANDS =     -1129.49507384
  atomic energy  EATOM  =     22254.96935453
  Solvation  Ediel_sol  =         0.00000000
  ---------------------------------------------------
  free energy    TOTEN  =       -41.76193305 eV

  energy without entropy =      -41.76193305  energy(sigma->0) =      -41.76193305


--------------------------------------------------------------------------------------------------------




----------------------------------------- Iteration    1(  31)  ---------------------------------------


    POTLOK:  cpu time    1.3826: real time    1.3834
    SETDIJ:  cpu time    0.0157: real time    0.0157
     EDDAV:  cpu time   19.4319: real time   19.4631
       DOS:  cpu time    0.0001: real time    0.0001
    CHARGE:  cpu time    0.6711: real time    0.6716
    MIXING:  cpu time    0.2063: real time    0.2063
    --------------------------------------------
      LOOP:  cpu time   21.7113: real time   21.7462

 eigenvalue-minimisations  :   708
 total energy-change (2. order) :-0.3982910E-01  (-0.1522459E-04)
 number of electron     176.0000817 magnetization       2.1346721
 augmentation part      112.9234730 magnetization       0.2413774

 Broyden mixing:
  rms(total) = 0.30613E-02    rms(broyden)= 0.30610E-02
  rms(prec ) = 0.31358E-02
  weight for this iteration     100.00

 eigenvalues of (default mixing * dielectric matrix)
  average eigenvalue GAMMA=   1.9547
 13.6822  9.4765  5.0968  3.1870  2.3946  1.7378  1.6040  1.6040  1.3010  0.9432
  0.9432  0.8848  0.8848  0.8009  0.7273  0.6259  0.6259  0.6178  0.3520  0.4316
  0.4316  0.5328  0.5007  0.5007  0.4701  0.4648

 Free energy of the ion-electron system (eV)
  ---------------------------------------------------
  alpha Z        PSCENC =         6.93407324
  Ewald energy   TEWEN  =     41815.31171437
  -Hartree energ DENC   =    -61981.68748735
  -exchange      EXHF   =         0.00000000
  -V(xc)+E(xc)   XCENC  =       708.19405292
  PAW double counting   =     20658.49501366   -22374.66460696
  entropy T*S    EENTRO =         0.00000000
  eigenvalues    EBANDS =     -1129.35387656
  atomic energy  EATOM  =     22254.96935453
  Solvation  Ediel_sol  =         0.00000000
  ---------------------------------------------------
  free energy    TOTEN  =       -41.80176215 eV

  energy without entropy =      -41.80176215  energy(sigma->0) =      -41.80176215


--------------------------------------------------------------------------------------------------------




----------------------------------------- Iteration    1(  32)  ---------------------------------------


    POTLOK:  cpu time    1.3811: real time    1.3827
    SETDIJ:  cpu time    0.0165: real time    0.0165
     EDDAV:  cpu time   20.2302: real time   20.2570
       DOS:  cpu time    0.0001: real time    0.0001
    CHARGE:  cpu time    0.6719: real time    0.6724
    MIXING:  cpu time    0.2114: real time    0.2115
    --------------------------------------------
      LOOP:  cpu time   22.5148: real time   22.5465

 eigenvalue-minimisations  :   744
 total energy-change (2. order) :-0.1354712E-01  (-0.6410427E-05)
 number of electron     176.0000817 magnetization       2.0672360
 augmentation part      112.9237704 magnetization       0.1722927

 Broyden mixing:
  rms(total) = 0.20902E-02    rms(broyden)= 0.20900E-02
  rms(prec ) = 0.21301E-02
  weight for this iteration     100.00

 eigenvalues of (default mixing * dielectric matrix)
  average eigenvalue GAMMA=   2.0010
 14.1321  9.6821  5.8177  3.5231  2.3036  2.3036  1.6207  1.6207  1.3498  0.9377
  0.9377  0.9795  0.8780  0.8780  0.8452  0.6266  0.6266  0.6380  0.6380  0.3520
  0.4317  0.4317  0.5348  0.5048  0.5048  0.4644  0.4644

 Free energy of the ion-electron system (eV)
  ---------------------------------------------------
  alpha Z        PSCENC =         6.93407324
  Ewald energy   TEWEN  =     41815.31171437
  -Hartree energ DENC   =    -61981.82630824
  -exchange      EXHF   =         0.00000000
  -V(xc)+E(xc)   XCENC  =       708.18037773
  PAW double counting   =     20658.49353043   -22374.64827704
  entropy T*S    EENTRO =         0.00000000
  eigenvalues    EBANDS =     -1129.22977429
  atomic energy  EATOM  =     22254.96935453
  Solvation  Ediel_sol  =         0.00000000
  ---------------------------------------------------
  free energy    TOTEN  =       -41.81530927 eV

  energy without entropy =      -41.81530927  energy(sigma->0) =      -41.81530927


--------------------------------------------------------------------------------------------------------




----------------------------------------- Iteration    1(  33)  ---------------------------------------


    POTLOK:  cpu time    1.3931: real time    1.4015
    SETDIJ:  cpu time    0.0173: real time    0.0173
     EDDAV:  cpu time   20.0056: real time   20.0415
[...]
 total charge-density along one line
 
 soft charge-density along one line, spin component           2
         0         1         2         3         4         5         6         7         8         9
 total charge-density along one line
 
 pseudopotential strength for first ion, spin component:           1
-10.931  -0.008  -0.007   0.009  -0.003   1.330   0.005   0.004
 -0.008 -10.944  -0.002   0.006  -0.008   0.005   1.340   0.002
 -0.007  -0.002 -10.940   0.004  -0.001   0.004   0.002   1.337
  0.009   0.006   0.004 -10.930  -0.001  -0.005  -0.003  -0.003
 -0.003  -0.008  -0.001  -0.001 -10.931   0.002   0.005   0.000
  1.330   0.005   0.004  -0.005   0.002   6.077  -0.003  -0.001
  0.005   1.340   0.002  -0.003   0.005  -0.003   6.069  -0.003
  0.004   0.002   1.337  -0.003   0.000  -0.001  -0.003   6.070
 -0.005  -0.003  -0.003   1.330  -0.000   0.002   0.001   0.003
  0.002   0.005   0.000  -0.000   1.329  -0.002  -0.001   0.001
  0.001   0.001   0.002  -0.001   0.000  -0.003  -0.004  -0.003
  0.002   0.003   0.005  -0.002   0.001  -0.006  -0.008  -0.005
 -0.007  -0.006  -0.009  -0.000  -0.015   0.005   0.004   0.006
 -0.000   0.015  -0.008  -0.008  -0.000   0.000  -0.009   0.006
  0.015  -0.000   0.004  -0.006  -0.007  -0.010   0.000  -0.002
 -0.008  -0.006  -0.009  -0.000  -0.016   0.006   0.004   0.006
 -0.000   0.016  -0.008  -0.009  -0.000   0.001  -0.009   0.007
  0.016  -0.000   0.004  -0.007  -0.007  -0.009   0.001  -0.002
 pseudopotential strength for first ion, spin component:           2
-10.932  -0.007  -0.003   0.009  -0.006   1.330   0.005   0.001
 -0.007 -10.933   0.004   0.006  -0.007   0.005   1.330  -0.003
 -0.003   0.004 -10.930   0.001  -0.003   0.001  -0.003   1.328
  0.009   0.006   0.001 -10.929   0.002  -0.007  -0.004  -0.001
 -0.006  -0.007  -0.003   0.002 -10.929   0.005   0.005   0.002
  1.330   0.005   0.001  -0.007   0.005   6.071  -0.003   0.001
  0.005   1.330  -0.003  -0.004   0.005  -0.003   6.071   0.001
  0.001  -0.003   1.328  -0.001   0.002   0.001   0.001   6.072
 -0.007  -0.004  -0.001   1.328  -0.002   0.004   0.001   0.002
  0.005   0.005   0.002  -0.002   1.328  -0.004  -0.003   0.000
  0.001  -0.001  -0.000  -0.001   0.001  -0.003  -0.001  -0.000
  0.002  -0.002  -0.001  -0.001   0.001  -0.006  -0.002  -0.000
 -0.008  -0.008  -0.010  -0.001  -0.016   0.006   0.007   0.007
 -0.001   0.016  -0.009  -0.008   0.000   0.001  -0.012   0.008
  0.017  -0.001   0.005  -0.008  -0.009  -0.013   0.001  -0.004
 -0.008  -0.009  -0.011  -0.001  -0.017   0.007   0.008   0.008
 -0.001   0.017  -0.010  -0.009   0.000   0.001  -0.012   0.008
  0.018  -0.001   0.006  -0.008  -0.010  -0.014   0.001  -0.005
 total augmentation occupancy for first ion, spin component:           1
  1.943  -0.007   0.006   0.002  -0.009  -0.015   0.004  -0.000  -0.002   0.004   0.007  -0.006   0.029  -0.005  -0.049  -0.011
 -0.007   1.940  -0.008  -0.002   0.002   0.004  -0.014   0.002  -0.002   0.001   0.013  -0.006   0.022  -0.057  -0.003  -0.010
  0.006  -0.008   1.940   0.008   0.006  -0.000   0.002  -0.016  -0.003   0.000   0.006  -0.002   0.026   0.034  -0.020  -0.014
  0.002  -0.002   0.008   1.942   0.008  -0.002  -0.002  -0.003  -0.017  -0.002  -0.006   0.004  -0.007   0.019   0.027  -0.001
 -0.009   0.002   0.006   0.008   1.946   0.004   0.001   0.000  -0.002  -0.018   0.009  -0.004   0.055   0.002   0.028  -0.024
 -0.015   0.004  -0.000  -0.002   0.004   0.010  -0.001   0.002  -0.001  -0.001  -0.008   0.003   0.008   0.005  -0.022  -0.001
  0.004  -0.014   0.002  -0.002   0.001  -0.001   0.010  -0.001  -0.001   0.001  -0.006   0.003   0.009  -0.020   0.004  -0.001
 -0.000   0.002  -0.016  -0.003   0.000   0.002  -0.001   0.009   0.001   0.001  -0.001   0.001   0.013   0.019  -0.007  -0.001
 -0.002  -0.002  -0.003  -0.017  -0.002  -0.001  -0.001   0.001   0.009   0.001   0.003  -0.002   0.005   0.013   0.012  -0.000
  0.004   0.001   0.000  -0.002  -0.018  -0.001   0.001   0.001   0.001   0.011  -0.007   0.002   0.021   0.002   0.017  -0.001
  0.007   0.013   0.006  -0.006   0.009  -0.008  -0.006  -0.001   0.003  -0.007   1.627  -0.115  -0.221   0.112   0.115   0.028
 -0.006  -0.006  -0.002   0.004  -0.004   0.003   0.003   0.001  -0.002   0.002  -0.115   0.015   0.028  -0.016  -0.016  -0.003
  0.029   0.022   0.026  -0.007   0.055   0.008   0.009   0.013   0.005   0.021  -0.221   0.028   0.124   0.008   0.008  -0.010
 -0.005  -0.057   0.034   0.019   0.002   0.005  -0.020   0.019   0.013   0.002   0.112  -0.016   0.008   0.131  -0.008   0.001
 -0.049  -0.003  -0.020   0.027   0.028  -0.022   0.004  -0.007   0.012   0.017   0.115  -0.016   0.008  -0.008   0.134   0.001
 -0.011  -0.010  -0.014  -0.001  -0.024  -0.001  -0.001  -0.001  -0.000  -0.001   0.028  -0.003  -0.010   0.001   0.001   0.001
 -0.001   0.025  -0.016  -0.012  -0.001  -0.000   0.001  -0.001  -0.001  -0.000  -0.015   0.002   0.001  -0.009  -0.001  -0.000
  0.025  -0.001   0.008  -0.011  -0.015   0.001  -0.000   0.000  -0.001  -0.001  -0.015   0.002   0.001  -0.001  -0.009  -0.000
 total augmentation occupancy for first ion, spin component:           2
  0.002   0.001   0.003  -0.001  -0.002   0.004  -0.001  -0.001  -0.000   0.000  -0.005  -0.002  -0.000  -0.002   0.008  -0.000
  0.001   0.006   0.003  -0.000   0.002  -0.001   0.002  -0.001   0.000   0.000  -0.024  -0.005  -0.007   0.007  -0.002  -0.001
  0.003   0.003   0.005  -0.001  -0.001  -0.001  -0.001   0.002   0.000   0.000  -0.020  -0.003  -0.005  -0.003   0.008  -0.001
 -0.001  -0.000  -0.001   0.000   0.002  -0.000   0.000   0.000   0.004  -0.001   0.002   0.002  -0.001   0.001  -0.005  -0.000
 -0.002   0.002  -0.001   0.002   0.003   0.000   0.000   0.000  -0.001   0.004  -0.001  -0.001  -0.005   0.003  -0.009  -0.001
  0.004  -0.001  -0.001  -0.000   0.000  -0.000   0.000   0.000  -0.000   0.000   0.003  -0.000   0.000   0.000  -0.001   0.000
 -0.001   0.002  -0.001   0.000   0.000   0.000   0.000   0.000   0.000   0.000   0.006   0.000   0.002  -0.001   0.001   0.000
 -0.001  -0.001   0.002   0.000   0.000   0.000   0.000   0.000  -0.000  -0.000   0.004   0.000   0.001   0.001  -0.002   0.000
 -0.000   0.000   0.000   0.004  -0.001  -0.000   0.000  -0.000   0.000  -0.000  -0.003   0.000   0.000  -0.000   0.001  -0.000
  0.000   0.000   0.000  -0.001   0.004   0.000   0.000  -0.000  -0.000  -0.000   0.002  -0.000   0.001  -0.001   0.002  -0.000
 -0.005  -0.024  -0.020   0.002  -0.001   0.003   0.006   0.004  -0.003   0.002   0.139   0.006   0.030  -0.008  -0.010   0.001
 -0.002  -0.005  -0.003   0.002  -0.001  -0.000   0.000   0.000   0.000  -0.000   0.006   0.001   0.001  -0.001  -0.001   0.000
 -0.000  -0.007  -0.005  -0.001  -0.005   0.000   0.002   0.001   0.000   0.001   0.030   0.001   0.007  -0.003   0.008   0.000
 -0.002   0.007  -0.003   0.001   0.003   0.000  -0.001   0.001  -0.000  -0.001  -0.008  -0.001  -0.003   0.008  -0.012  -0.000
  0.008  -0.002   0.008  -0.005  -0.009  -0.001   0.001  -0.002   0.001   0.002  -0.010  -0.001   0.008  -0.012   0.027  -0.000
 -0.000  -0.001  -0.001  -0.000  -0.001   0.000   0.000   0.000  -0.000  -0.000   0.001   0.000   0.000  -0.000  -0.000   0.000
 -0.000   0.001  -0.000  -0.000   0.000  -0.000   0.000  -0.000   0.000   0.000  -0.000  -0.000  -0.000  -0.000   0.000  -0.000
  0.001   0.000   0.001  -0.000  -0.001   0.000  -0.000   0.000  -0.000  -0.000  -0.000  -0.000  -0.000   0.000  -0.000   0.000


------------------------ aborting loop because EDIFF is reached ----------------------------------------


 


 total charge     
 
# of ion     s       p       d       tot
----------------------------------------
  1        0.447   0.206   9.254   9.906
  2        0.444   0.202   9.255   9.901
  3        0.455   0.197   9.253   9.905
  4        0.440   0.207   9.257   9.904
  5        0.460   0.481   9.216  10.157
  6        0.453   0.256   9.221   9.930
  7        0.473   0.107   9.303   9.883
  8        0.456   0.195   9.252   9.903
  9        0.443   0.323   9.200   9.965
 10        0.441   0.222   9.240   9.904
 11        0.439   0.205   9.257   9.900
 12        0.472   0.194   9.255   9.921
 13        0.444   0.228   9.238   9.910
 14        0.471   0.193   9.255   9.920
 15        0.453   0.195   9.254   9.902
 16        0.420   0.214   9.271   9.906
------------------------------------------------
tot        7.211   3.625 147.979 158.815
 


 magnetization (x)
 
# of ion     s       p       d       tot
----------------------------------------
  1        0.056   0.026   0.003   0.085
  2        0.055   0.026   0.003   0.084
  3        0.029   0.023   0.007   0.059
  4        0.057   0.026   0.003   0.086
  5       -0.002  -0.006   0.121   0.113
  6        0.021   0.011   0.017   0.049
  7       -0.007   0.001   0.009   0.003
  8        0.017   0.011   0.017   0.046
  9        0.000   0.007   0.016   0.024
 10        0.031   0.020   0.010   0.061
 11        0.057   0.026   0.004   0.087
 12       -0.005   0.001   0.013   0.009
 13        0.031   0.021   0.011   0.063
 14       -0.005   0.001   0.014   0.010
 15        0.029   0.023   0.006   0.058
 16        0.000   0.005   0.022   0.027
------------------------------------------------
tot        0.366   0.224   0.275   0.864
 
    CHARGE:  cpu time    0.6632: real time    0.6637
    FORLOC:  cpu time    0.0639: real time    0.0639
    FORNL :  cpu time    4.8699: real time    4.8778
    STRESS:  cpu time   17.1889: real time   17.2126
    FORCOR:  cpu time    1.3808: real time    1.3819
    FORHAR:  cpu time    0.2055: real time    0.2055
    MIXING:  cpu time    0.0464: real time    0.0465
    OFIELD:  cpu time    0.0001: real time    0.0001

  FORCE on cell =-STRESS in cart. coord.  units (eV):
  Direction    XX          YY          ZZ          XY          YZ          ZX
  --------------------------------------------------------------------------------------
  Alpha Z     6.93407     6.93407     6.93407
  Ewald   11437.11201 12445.37093 17900.06379   751.94972  2721.54514  1436.53169
  Hartree 18366.65846 19311.07699 24272.76155   664.00884  2499.95070  1284.93336
  E(xc)   -1027.21429 -1027.15912 -1026.39729     0.15423     0.29405     0.27086
  Local  -31353.93715-33307.10024-43715.09787 -1414.16209 -5219.15933 -2718.11295
  n-local  -382.70577  -382.40583  -380.59328     0.23711     0.93909     0.44980
  augment  1503.82887  1503.84048  1499.17281    -0.88337    -1.53912    -1.82715
  Kinetic  1445.38579  1445.27314  1438.95249    -1.27791    -2.18791    -2.33914
  Fock        0.00000     0.00000     0.00000     0.00000     0.00000     0.00000
  -------------------------------------------------------------------------------------
  Total      -3.93801    -4.16958    -4.20372     0.02652    -0.15738    -0.09353
  in kB      -0.23368    -0.24742    -0.24945     0.00157    -0.00934    -0.00555
  external pressure =       -0.24 kB  Pullay stress =        0.00 kB


 VOLUME and BASIS-vectors are now :
 -----------------------------------------------------------------------------
  energy-cutoff  :      295.45
  volume of cell :    27000.00
      direct lattice vectors                 reciprocal lattice vectors
    30.000000000  0.000000000  0.000000000     0.033333333  0.000000000  0.000000000
     0.000000000 30.000000000  0.000000000     0.000000000  0.033333333  0.000000000
     0.000000000  0.000000000 30.000000000     0.000000000  0.000000000  0.033333333

  length of vectors
    30.000000000 30.000000000 30.000000000     0.033333333  0.033333333  0.033333333


 FORCES acting on ions
    electron-ion (+dipol)            ewald-force                    non-local-force                 convergence-correction
 -----------------------------------------------------------------------------------------------
   0.756E+03 -.118E+04 0.866E+03   -.753E+03 0.118E+04 -.863E+03   -.294E+01 0.671E+01 -.279E+01   -.667E-02 -.296E-02 0.573E-03
   0.164E+04 0.713E+02 0.122E+03   -.163E+04 -.713E+02 -.123E+03   -.791E+01 0.328E-01 0.130E+01   -.596E-02 -.155E-02 0.132E-01
   -.676E+03 -.538E+03 0.141E+04   0.672E+03 0.536E+03 -.140E+04   0.340E+01 0.292E+01 -.597E+01   -.396E-02 0.712E-02 0.357E-02
   -.161E+04 0.103E+03 0.259E+03   0.160E+04 -.103E+03 -.258E+03   0.799E+01 -.191E+00 -.109E+01   -.700E-03 0.367E-02 -.153E-02
   0.418E+02 0.108E+03 0.207E+03   -.416E+02 -.108E+03 -.206E+03   -.226E+00 -.369E+00 -.102E+01   0.714E-02 -.389E-02 0.201E-02
   0.101E+04 -.985E+03 -.429E+03   -.100E+04 0.984E+03 0.430E+03   -.295E+01 0.172E+01 -.598E+00   0.635E-02 0.367E-02 0.961E-03
   -.787E+03 -.135E+03 -.119E+04   0.780E+03 0.135E+03 0.118E+04   0.703E+01 0.337E+00 0.933E+01   0.859E-02 -.258E-02 -.124E-01
   -.659E+03 0.108E+04 0.105E+04   0.656E+03 -.108E+04 -.105E+04   0.333E+01 -.457E+01 -.383E+01   0.536E-03 0.596E-02 -.251E-02
   -.906E+03 0.224E+03 -.753E+03   0.908E+03 -.225E+03 0.753E+03   -.171E+01 0.120E+01 -.116E+00   0.100E-02 0.860E-03 -.854E-02
   0.830E+03 0.850E+03 -.986E+03   -.827E+03 -.846E+03 0.984E+03   -.273E+01 -.467E+01 0.226E+01   0.616E-02 -.565E-03 0.635E-02
   -.683E+03 0.140E+04 -.501E+03   0.680E+03 -.139E+04 0.498E+03   0.332E+01 -.688E+01 0.286E+01   0.326E-02 0.247E-02 -.308E-02
   0.611E+03 -.989E+02 -.139E+04   -.609E+03 0.977E+02 0.139E+04   -.273E+01 0.115E+01 0.742E+01   0.969E-03 0.123E-01 -.314E-02
   -.728E+03 -.132E+04 0.311E+03   0.725E+03 0.132E+04 -.308E+03   0.326E+01 0.370E+01 -.270E+01   0.638E-02 -.299E-02 0.280E-02
   -.329E+03 -.135E+04 -.636E+03   0.327E+03 0.134E+04 0.632E+03   0.159E+01 0.665E+01 0.397E+01   0.957E-04 0.371E-02 -.525E-02
   0.746E+03 0.145E+04 0.227E+03   -.743E+03 -.145E+04 -.226E+03   -.349E+01 -.658E+01 -.313E+00   -.124E-02 -.697E-02 0.930E-02
   0.745E+03 0.321E+03 0.145E+04   -.741E+03 -.319E+03 -.144E+04   -.344E+01 -.196E+01 -.756E+01   -.672E-02 -.133E-01 0.395E-02
 -----------------------------------------------------------------------------------------------
   -.168E+01 0.808E+00 -.118E+01   0.114E-12 0.000E+00 0.227E-12   0.180E+01 -.788E+00 0.117E+01   0.152E-01 0.492E-02 0.631E-02
 
 
 POSITION                                       TOTAL-FORCE (eV/Angst)
 -----------------------------------------------------------------------------------
      8.04779     10.91608      7.52831         0.008135      0.016891      0.001797
      6.72407      9.05632      8.61657        -0.008371      0.006155      0.001915
     10.18441      9.93554      6.60463         0.004146      0.001200     -0.002730
     11.52855      9.02424      8.49736        -0.006321     -0.002847      0.002738
      9.12506      9.04490      8.58794         0.010030      0.001379      0.001734
      8.00517     10.73978     10.03293        -0.004827     -0.004328     -0.008662
     10.96016     10.21477     12.76748        -0.014535      0.010451      0.005853
     10.17448      7.43733      7.09648         0.002389      0.002637      0.005069
     10.40870      9.34891     10.66168        -0.001859     -0.004646     -0.009277
      8.05642      8.22369     10.61599         0.005053     -0.004705     -0.005294
     10.19787      7.13422      9.58620        -0.003490      0.004759      0.007578
      8.60355      9.93558     12.23330         0.003178     -0.012724      0.000276
     10.21028     11.22617      8.80348         0.000933     -0.011814     -0.003121
      9.94500     11.71653     11.14515         0.004587     -0.002370      0.007752
      8.03642      6.90941      8.37669        -0.001429      0.003147      0.000679
      8.03036      8.62756      6.52162         0.002380     -0.003184     -0.006309
 -----------------------------------------------------------------------------------
    total drift:                                0.129510      0.024782     -0.011563


--------------------------------------------------------------------------------------------------------



  FREE ENERGIE OF THE ION-ELECTRON SYSTEM (eV)
  ---------------------------------------------------
  free  energy   TOTEN  =       -41.83591927 eV

  energy  without entropy=      -41.83591927  energy(sigma->0) =      -41.83591927
 
 d Force = 0.3699966E-03[ 0.132E-03, 0.608E-03]  d Energy = 0.3750059E-03-0.501E-05
 d Force = 0.4007400E+01[ 0.403E+01, 0.399E+01]  d Ewald  = 0.4007397E+01 0.374E-05


--------------------------------------------------------------------------------------------------------


    POTLOK:  cpu time    1.4028: real time    1.4074


--------------------------------------------------------------------------------------------------------


 Conjugate gradient step on ions:
 trial-energy change:   -0.000375  1 .order   -0.000370   -0.000608   -0.000132
  (g-gl).g = 0.275E-03      g.g   = 0.263E-03  gl.gl    = 0.406E-03
 g(Force)  = 0.263E-03   g(Stress)= 0.000E+00 ortho     = 0.872E-05
 gamma     =   0.67861
 trial     =   2.25672
 opt step  =   2.83836  (harmonic =   2.88461) maximal distance =0.00537715
 next E    =   -41.835936   (d E  =  -0.00039)


--------------------------------------------------------------------------------------------------------


  
 reached required accuracy - stopping structural energy minimisation
     LOOP+:  cpu time  175.7511: real time  176.5901
    4ORBIT:  cpu time    0.0000: real time    0.0000
 


 total charge     
 
# of ion     s       p       d       tot
----------------------------------------
  1        0.447   0.206   9.254   9.906
  2        0.444   0.202   9.255   9.901
  3        0.455   0.197   9.253   9.905
  4        0.440   0.207   9.257   9.904
  5        0.460   0.481   9.216  10.157
  6        0.453   0.256   9.221   9.930
  7        0.473   0.107   9.303   9.883
  8        0.456   0.195   9.252   9.903
  9        0.443   0.323   9.200   9.965
 10        0.441   0.222   9.240   9.904
 11        0.439   0.205   9.257   9.900
 12        0.472   0.194   9.255   9.921
 13        0.444   0.228   9.238   9.910
 14        0.471   0.193   9.255   9.920
 15        0.453   0.195   9.254   9.902
 16        0.420   0.214   9.271   9.906
------------------------------------------------
tot        7.211   3.625 147.979 158.815
 


 magnetization (x)
 
# of ion     s       p       d       tot
----------------------------------------
  1        0.056   0.026   0.003   0.085
  2        0.055   0.026   0.003   0.084
  3        0.029   0.023   0.007   0.059
  4        0.057   0.026   0.003   0.086
  5       -0.002  -0.006   0.121   0.113
  6        0.021   0.011   0.017   0.049
  7       -0.007   0.001   0.009   0.003
  8        0.017   0.011   0.017   0.046
  9        0.000   0.007   0.016   0.024
 10        0.031   0.020   0.010   0.061
 11        0.057   0.026   0.004   0.087
 12       -0.005   0.001   0.013   0.009
 13        0.031   0.021   0.011   0.063
 14       -0.005   0.001   0.014   0.010
 15        0.029   0.023   0.006   0.058
 16        0.000   0.005   0.022   0.027
------------------------------------------------
tot        0.366   0.224   0.275   0.864
 

 total amount of memory used by VASP on root node   175749. kBytes
========================================================================

   base      :      30000. kBytes
   nonl-proj :      10361. kBytes
   fftplans  :      30597. kBytes
   grid      :      77361. kBytes
   one-center:         46. kBytes
   wavefun   :      27384. kBytes
 
  
  
 General timing and accounting informations for this job:
 ========================================================
  
                  Total CPU time used (sec):     4403.755
                            User time (sec):     4305.426
                          System time (sec):       98.330
                         Elapsed time (sec):     4418.598
  
                   Maximum memory used (kb):      316720.
                   Average memory used (kb):           0.
  
                          Minor page faults:      4943142
                          Major page faults:            0
                 Voluntary context switches:         5351
