 vasp.5.4.1 05Feb16 (build Apr 11 2020 03:28:46) gamma-only                     
  
 executed on           IFC91_ompi date 2022.06.04  04:27:15
 running on   24 total cores
 distrk:  each k-point on   24 cores,    1 groups
 distr:  one band on NCORES_PER_BAND=   6 cores,    4 groups


--------------------------------------------------------------------------------------------------------


 INCAR:
 POTCAR:    PAW_PBE Cu 22Jun2005                  
 POTCAR:    PAW_PBE Cu 22Jun2005                  
   VRHFIN =Cu: d10 p1                                                           
   LEXCH  = PE                                                                  
   EATOM  =  1390.9808 eV,  102.2342 Ry                                         
                                                                                
   TITEL  = PAW_PBE Cu 22Jun2005                                                
   LULTRA =        F    use ultrasoft PP ?                                      
   IUNSCR =        1    unscreen: 0-lin 1-nonlin 2-no                           
   RPACOR =    2.000    partial core radius                                     
   POMASS =   63.546; ZVAL   =   11.000    mass and valenz                      
   RCORE  =    2.300    outmost cutoff radius                                   
   RWIGS  =    2.200; RWIGS  =    1.164    wigner-seitz radius (au A)           
   ENMAX  =  295.446; ENMIN  =  221.585 eV                                      
   ICORE  =        3    local potential                                         
   LCOR   =        T    correct aug charges                                     
   LPAW   =        T    paw PP                                                  
   EAUG   =  586.980                                                            
   DEXC   =    0.000                                                            
   RMAX   =    2.344    core radius for proj-oper                               
   RAUG   =    1.300    factor for augmentation sphere                          
   RDEP   =    2.302    radius for radial grids                                 
   RDEPT  =    1.771    core radius for aug-charge                              
                                                                                
   Atomic configuration                                                         
    9 entries                                                                   
     n  l   j            E        occ.                                          
     1  0  0.50     -8850.2468   2.0000                                         
     2  0  0.50     -1062.3498   2.0000                                         
     2  1  1.50      -916.8226   6.0000                                         
     3  0  0.50      -114.6929   2.0000                                         
     3  1  1.50       -72.1325   6.0000                                         
     3  2  2.50        -5.0394  10.0000                                         
     4  0  0.50        -4.6097   1.0000                                         
     4  1  0.50        -4.0817   0.0000                                         
     4  3  2.50        -1.3606   0.0000                                         
   Description                                                                  
     l       E           TYP  RCUT    TYP  RCUT                                 
     2     -5.0393973     23  2.200                                             
     2     10.8846608     23  2.200                                             
     0     -4.6097109     23  2.200                                             
     0      8.2520465     23  2.200                                             
     1     -2.7211652     23  2.200                                             
     1     21.7055443     23  2.200                                             
     3      2.7211652     23  2.300                                             
  local pseudopotential read in
  partial core-charges read in
  partial kinetic energy density read in
  atomic valenz-charges read in
  non local Contribution for L=           2  read in
    real space projection operators read in
  non local Contribution for L=           2  read in
    real space projection operators read in
  non local Contribution for L=           0  read in
    real space projection operators read in
  non local Contribution for L=           0  read in
    real space projection operators read in
  non local Contribution for L=           1  read in
    real space projection operators read in
  non local Contribution for L=           1  read in
    real space projection operators read in
    PAW grid and wavefunctions read in
 
   number of l-projection  operators is LMAX  =           6
   number of lm-projection operators is LMMAX =          18
 
  PAW_PBE Cu 22Jun2005                  :
 energy of atom  1       EATOM=-1390.9808
 kinetic energy error for atom=    0.0452 (will be added to EATOM!!)
 
 
 POSCAR: unknown system                          
  positions in direct lattice
  velocities in cartesian coordinates
 exchange correlation table for  LEXCH =        8
   RHO(1)=    0.500       N(1)  =     2000
   RHO(2)=  100.500       N(2)  =     4000
 


--------------------------------------------------------------------------------------------------------


 ion  position               nearest neighbor table
   1  0.581  0.621  0.434-   7 2.38   2 2.44   6 2.51   5 2.51   4 2.56
   2  0.578  0.563  0.546-  10 2.41   5 2.42   1 2.44   4 2.53   3 2.53  12 2.70   7 2.77
   3  0.475  0.587  0.624-  10 2.41   4 2.48   8 2.48   2 2.53  14 2.58
   4  0.466  0.610  0.498-   3 2.48   7 2.49  10 2.49   2 2.53   8 2.55   1 2.56  11 2.58
   5  0.647  0.511  0.455-  12 2.40   2 2.42   6 2.44   1 2.51   9 2.51   7 2.58
   6  0.600  0.534  0.339-   7 2.34   5 2.44   9 2.49   1 2.51
   7  0.516  0.517  0.425-   6 2.34   1 2.38   9 2.39  11 2.42  10 2.48  16 2.48   4 2.49   5 2.58
                             2 2.77  12 2.78
   8  0.367  0.552  0.564-  11 2.42  10 2.44   3 2.48  14 2.52  13 2.53   4 2.55
   9  0.582  0.417  0.392-   7 2.39  12 2.43   6 2.49   5 2.51  16 2.52
  10  0.477  0.490  0.545-  14 2.31   3 2.41  12 2.41  15 2.41   2 2.41   8 2.44  13 2.46   7 2.48
                             4 2.49  11 2.49  16 2.50
  11  0.393  0.510  0.448-  13 2.42   8 2.42   7 2.42  10 2.49  16 2.56   4 2.58
  12  0.580  0.426  0.517-   5 2.40  10 2.41   9 2.43  15 2.52  16 2.55   2 2.70   7 2.78
  13  0.369  0.423  0.536-  11 2.42  10 2.46  15 2.48   8 2.53  14 2.54  16 2.54
  14  0.421  0.467  0.648-  10 2.31   8 2.52  13 2.54   3 2.58  15 2.59
  15  0.478  0.369  0.576-  10 2.41  16 2.48  13 2.48  12 2.52  14 2.59
  16  0.468  0.401  0.452-  15 2.48   7 2.48  10 2.50   9 2.52  13 2.54  12 2.55  11 2.56
 
  LATTYP: Found a simple cubic cell.
 ALAT       =    19.2942420000
  
  Lattice vectors:
  
 A1 = (  19.2942420000,   0.0000000000,   0.0000000000)
 A2 = (   0.0000000000,  19.2942420000,   0.0000000000)
 A3 = (   0.0000000000,   0.0000000000,  19.2942420000)


Analysis of symmetry for initial positions (statically):
=====================================================================
 Subroutine PRICEL returns:
 Original cell was already a primitive cell.
 

 Routine SETGRP: Setting up the symmetry group for a 
 simple cubic supercell.


 Subroutine GETGRP returns: Found  1 space group operations
 (whereof  1 operations were pure point group operations)
 out of a pool of 48 trial point group operations.


The static configuration has the point symmetry C_1 .


Analysis of symmetry for dynamics (positions and initial velocities):
=====================================================================
 Subroutine PRICEL returns:
 Original cell was already a primitive cell.
 

 Routine SETGRP: Setting up the symmetry group for a 
 simple cubic supercell.


 Subroutine GETGRP returns: Found  1 space group operations
 (whereof  1 operations were pure point group operations)
 out of a pool of 48 trial point group operations.


The dynamic configuration has the point symmetry C_1 .


Analysis of structural, dynamic, and magnetic symmetry:
=====================================================================
 Subroutine PRICEL returns:
 Original cell was already a primitive cell.
 

 Routine SETGRP: Setting up the symmetry group for a 
 simple cubic supercell.


 Subroutine GETGRP returns: Found  1 space group operations
 (whereof  1 operations were pure point group operations)
 out of a pool of 48 trial point group operations.


The magnetic configuration has the point symmetry C_1 .


 Subroutine INISYM returns: Found  1 space group operations
 (whereof  1 operations are pure point group operations),
 and found     1 'primitive' translations

 
 
 KPOINTS: Gamma-point only                        
  k-points in reciprocal lattice
Space group operators:
 irot       det(A)        alpha          n_x          n_y          n_z        tau_x        tau_y        tau_z
    1     1.000000     0.000000     1.000000     0.000000     0.000000     0.000000     0.000000     0.000000


--------------------------------------------------------------------------------------------------------




 Dimension of arrays:
   k-points           NKPTS =      1   k-points in BZ     NKDIM =      1   number of bands    NBANDS=    132
   number of dos      NEDOS =    301   number of ions     NIONS =     16
   non local maximal  LDIM  =      6   non local SUM 2l+1 LMDIM =     18
   total plane-waves  NPLWV = 592704
   max r-space proj   IRMAX =      1   max aug-charges    IRDMAX=   2589
   dimension x,y,z NGX =    84 NGY =   84 NGZ =   84
   dimension x,y,z NGXF=   168 NGYF=  168 NGZF=  168
   support grid    NGXF=   168 NGYF=  168 NGZF=  168
   ions per type =              16
 NGX,Y,Z   is equivalent  to a cutoff of   7.24,  7.24,  7.24 a.u.
 NGXF,Y,Z  is equivalent  to a cutoff of  14.48, 14.48, 14.48 a.u.


 I would recommend the setting:
   dimension x,y,z NGX =    81 NGY =   81 NGZ =   81
 SYSTEM =  unknown system                          
 POSCAR =  unknown system                          

 Startparameter for this run:
   NWRITE =      2    write-flag & timer
   PREC   = normal    normal or accurate (medium, high low for compatibility)
   ISTART =      0    job   : 0-new  1-cont  2-samecut
   ICHARG =      2    charge: 1-file 2-atom 10-const
   ISPIN  =      2    spin polarized calculation?
   LNONCOLLINEAR =      F non collinear calculations
   LSORBIT =      F    spin-orbit coupling
   INIWAV =      1    electr: 0-lowe 1-rand  2-diag
   LASPH  =      F    aspherical Exc in radial PAW
   METAGGA=      F    non-selfconsistent MetaGGA calc.

 Electronic Relaxation 1
   ENCUT  =  295.4 eV  21.71 Ry    4.66 a.u.  27.04 27.04 27.04*2*pi/ulx,y,z
   ENINI  =  295.4     initial cutoff
   ENAUG  =  587.0 eV  augmentation charge cutoff
   NELM   =     60;   NELMIN=  2; NELMDL=  0     # of ELM steps 
   EDIFF  = 0.1E-05   stopping-criterion for ELM
   LREAL  =      F    real-space projection
   NLSPLINE    = F    spline interpolate recip. space projectors
   LCOMPAT=      F    compatible to vasp.4.4
   GGA_COMPAT  = T    GGA compatible to vasp.4.4-vasp.4.6
   LMAXPAW     = -100 max onsite density
   LMAXMIX     =    2 max onsite mixed and CHGCAR
   VOSKOWN=      0    Vosko Wilk Nusair interpolation
   ROPT   =    0.00000
 Ionic relaxation
   EDIFFG = -.3E-01   stopping-criterion for IOM
   NSW    =   1000    number of steps for IOM
   NBLOCK =      1;   KBLOCK =   1000    inner block; outer block 
   IBRION =      2    ionic relax: 0-MD 1-quasi-New 2-CG
   NFREE  =      1    steps in history (QN), initial steepest desc. (CG)
   ISIF   =      2    stress and relaxation
   IWAVPR =     11    prediction:  0-non 1-charg 2-wave 3-comb
   ISYM   =      2    0-nonsym 1-usesym 2-fastsym
   LCORR  =      T    Harris-Foulkes like correction to forces

   POTIM  = 0.5000    time-step for ionic-motion
   TEIN   =    0.0    initial temperature
   TEBEG  =    0.0;   TEEND  =   0.0 temperature during run
   SMASS  =  -3.00    Nose mass-parameter (am)
   estimated Nose-frequenzy (Omega)   =  0.10E-29 period in steps =****** mass=  -0.851E-26a.u.
   SCALEE = 1.0000    scale energy and forces
   NPACO  =    256;   APACO  = 16.0  distance and # of slots for P.C.
   PSTRESS=    0.0 pullay stress

  Mass of Ions in am
   POMASS =  63.55
  Ionic Valenz
   ZVAL   =  11.00
  Atomic Wigner-Seitz radii
   RWIGS  =  -1.00
  virtual crystal weights 
   VCA    =   1.00
   NELECT =     176.0000    total number of electrons
   NUPDOWN=      -1.0000    fix difference up-down

 DOS related values:
   EMIN   =  10.00;   EMAX   =-10.00  energy-range for DOS
   EFERMI =   0.00
   ISMEAR =     0;   SIGMA  =   0.00  broadening in eV -4-tet -1-fermi 0-gaus

 Electronic relaxation 2 (details)
   IALGO  =     38    algorithm
   LDIAG  =      T    sub-space diagonalisation (order eigenvalues)
   LSUBROT=      F    optimize rotation matrix (better conditioning)
   TURBO    =      0    0=normal 1=particle mesh
   IRESTART =      0    0=no restart 2=restart with 2 vectors
   NREBOOT  =      0    no. of reboots
   NMIN     =      0    reboot dimension
   EREF     =   0.00    reference energy to select bands
   IMIX   =      4    mixing-type and parameters
     AMIX     =   0.40;   BMIX     =  1.00
     AMIX_MAG =   1.60;   BMIX_MAG =  1.00
     AMIN     =   0.10
     WC   =   100.;   INIMIX=   1;  MIXPRE=   1;  MAXMIX= -45

 Intra band minimization:
   WEIMIN = 0.0010     energy-eigenvalue tresh-hold
   EBREAK =  0.19E-08  absolut break condition
   DEPER  =   0.30     relativ break condition  

   TIME   =   0.40     timestep for ELM

  volume/ion in A,a.u.               =     448.91      3029.42
  Fermi-wavevector in a.u.,A,eV,Ry     =   0.475501  0.898566  3.076292  0.226101
  Thomas-Fermi vector in A             =   1.470380
 
 Write flags
   LWAVE  =      F    write WAVECAR
   LCHARG =      F    write CHGCAR
   LVTOT  =      F    write LOCPOT, total local potential
   LVHAR  =      F    write LOCPOT, Hartree potential only
   LELF   =      F    write electronic localiz. function (ELF)
   LORBIT =     11    0 simple, 1 ext, 2 COOP (PROOUT)


 Dipole corrections
   LMONO  =      F    monopole corrections only (constant potential shift)
   LDIPOL =      F    correct potential (dipole corrections)
   IDIPOL =      0    1-x, 2-y, 3-z, 4-all directions 
   EPSILON=  1.0000000 bulk dielectric constant

 Exchange correlation treatment:
   GGA     =    PE    GGA type
   LEXCH   =     8    internal setting for exchange type
   VOSKOWN=      0    Vosko Wilk Nusair interpolation
   LHFCALC =     F    Hartree Fock is set to
   LHFONE  =     F    Hartree Fock one center treatment
   AEXX    =    0.0000 exact exchange contribution

 Linear response parameters
   LEPSILON=     F    determine dielectric tensor
   LRPA    =     F    only Hartree local field effects (RPA)
   LNABLA  =     F    use nabla operator in PAW spheres
   LVEL    =     F    velocity operator in full k-point grid
   LINTERFAST=   F  fast interpolation
   KINTER  =     0    interpolate to denser k-point grid
   CSHIFT  =0.1000    complex shift for real part using Kramers Kronig
   OMEGAMAX=  -1.0    maximum frequency
   DEG_THRESHOLD= 0.2000000E-02 threshold for treating states as degnerate
   RTIME   =    0.100 relaxation time in fs

 Orbital magnetization related:
   ORBITALMAG=     F  switch on orbital magnetization
   LCHIMAG   =     F  perturbation theory with respect to B field
   DQ        =  0.001000  dq finite difference perturbation B field



--------------------------------------------------------------------------------------------------------


 conjugate gradient relaxation of ions
 charge density and potential will be updated during run
 spin polarized calculation
 Variant of blocked Davidson
 Davidson routine will perform the subspace rotation
 perform sub-space diagonalisation
    after iterative eigenvector-optimisation
 modified Broyden-mixing scheme, WC =      100.0
 initial mixing is a Kerker type mixing with AMIX =  0.4000 and BMIX =      1.0000
 Hartree-type preconditioning will be used
 using additional bands           44
 reciprocal scheme for non local part
 use partial core corrections
 calculate Harris-corrections to forces 
   (improved forces if not selfconsistent)
 use gradient corrections 
 use of overlap-Matrix (Vanderbilt PP)
 Gauss-broadening in eV      SIGMA  =   0.00


--------------------------------------------------------------------------------------------------------


  energy-cutoff  :      295.45
  volume of cell :     7182.62
      direct lattice vectors                 reciprocal lattice vectors
    19.294242000  0.000000000  0.000000000     0.051828934  0.000000000  0.000000000
     0.000000000 19.294242000  0.000000000     0.000000000  0.051828934  0.000000000
     0.000000000  0.000000000 19.294242000     0.000000000  0.000000000  0.051828934

  length of vectors
    19.294242000 19.294242000 19.294242000     0.051828934  0.051828934  0.051828934


 
 k-points in units of 2pi/SCALE and weight: Gamma-point only                        
   0.00000000  0.00000000  0.00000000       1.000
 
 k-points in reciprocal lattice and weights: Gamma-point only                        
   0.00000000  0.00000000  0.00000000       1.000
 
 position of ions in fractional coordinates (direct lattice) 
   0.58107196  0.62142912  0.43366682
   0.57837597  0.56338411  0.54589562
   0.47531834  0.58703156  0.62386399
   0.46553347  0.61033202  0.49810097
   0.64669947  0.51105708  0.45487215
   0.60011277  0.53410769  0.33945078
   0.51614614  0.51663513  0.42542768
   0.36738351  0.55154787  0.56396580
   0.58227285  0.41722748  0.39155416
   0.47666580  0.49047471  0.54480526
   0.39297886  0.50994709  0.44839925
   0.58044479  0.42633850  0.51736466
   0.36898135  0.42326566  0.53580858
   0.42138831  0.46722024  0.64813399
   0.47849457  0.36948305  0.57642868
   0.46813182  0.40051866  0.45226161
 
 position of ions in cartesian coordinates  (Angst):
  11.21134302 11.99000383  8.36727257
  11.15932593 10.87006936 10.53264220
   9.17090708 11.32632898 12.03698280
   8.98211543 11.77589369  9.61048066
  12.47757608  9.86045898  8.77641334
  11.57872101 10.30520302  6.54944550
   9.95864853  9.96808322  8.20830461
   7.08838635 10.64169808 10.88129262
  11.23451328  8.05008797  7.55474072
   9.19690530  9.46333775 10.51160453
   7.58222923  9.83904256  8.65152364
  11.19924225  8.22587819  9.98215895
   7.11921546  8.16659007 10.33802041
   8.13036803  9.01466038 12.50525405
   9.23219003  7.12889538 11.12175445
   9.03224862  7.72770395  8.72604495
 


--------------------------------------------------------------------------------------------------------


 use parallel FFT for wavefunctions z direction half grid
 k-point  1 :   0.0000 0.0000 0.0000  plane waves:   41476

 maximum and minimum number of plane-waves per node :      6921     6904

 maximum number of plane-waves:     41476
 maximum index in each direction: 
   IXMAX=   27   IYMAX=   27   IZMAX=   27
   IXMIN=  -27   IYMIN=  -27   IZMIN=    0

 WARNING: aliasing errors must be expected set NGX to 110 to avoid them
 WARNING: aliasing errors must be expected set NGY to 110 to avoid them
 WARNING: aliasing errors must be expected set NGZ to 110 to avoid them
 aliasing errors are usually negligible using standard VASP settings
 and one can safely disregard these warnings

 parallel 3D FFT for wavefunctions:
    minimum data exchange during FFTs selected (reduces bandwidth)
 parallel 3D FFT for charge:
    minimum data exchange during FFTs selected (reduces bandwidth)


 total amount of memory used by VASP on root node    71303. kBytes
========================================================================

   base      :      30000. kBytes
   nonl-proj :       2769. kBytes
   fftplans  :       8851. kBytes
   grid      :      22296. kBytes
   one-center:         46. kBytes
   wavefun   :       7341. kBytes
 
     INWAV:  cpu time    0.0000: real time    0.0000
 Broyden mixing: mesh for mixing (old mesh)
   NGX = 55   NGY = 55   NGZ = 55
  (NGX  =168   NGY  =168   NGZ  =168)
  gives a total of 166375 points

 initial charge density was supplied:
 charge density of overlapping atoms calculated
 number of electron     176.0000000 magnetization      48.0000000
 keeping initial charge density in first step


--------------------------------------------------------------------------------------------------------


 Maximum index for augmentation-charges          207 (set IRDMAX)


--------------------------------------------------------------------------------------------------------


 First call to EWALD:  gamma=   0.092
 Maximum number of real-space cells 3x 3x 3
 Maximum number of reciprocal cells 3x 3x 3

 FEWALD executed in parallel
    FEWALD:  cpu time    0.0019: real time    0.0020


----------------------------------------- Iteration    1(   1)  ---------------------------------------


    POTLOK:  cpu time    0.3154: real time    0.3165
    SETDIJ:  cpu time    0.0085: real time    0.0085
     EDDAV:  cpu time    1.8469: real time    1.8506
       DOS:  cpu time    0.0001: real time    0.0001
    --------------------------------------------
      LOOP:  cpu time    2.1737: real time    2.1940

 eigenvalue-minimisations  :   528
 total energy-change (2. order) : 0.1149573E+04  (-0.3517137E+04)
 number of electron     176.0000000 magnetization      48.0000000
 augmentation part      176.0000000 magnetization      48.0000000

 Free energy of the ion-electron system (eV)
  ---------------------------------------------------
  alpha Z        PSCENC =        26.06567791
  Ewald energy   TEWEN  =     30308.30404750
  -Hartree energ DENC   =    -50601.64358881
  -exchange      EXHF   =         0.00000000
  -V(xc)+E(xc)   XCENC  =       735.43066774
  PAW double counting   =     19635.47487684   -21326.33402971
  entropy T*S    EENTRO =         0.00000000
  eigenvalues    EBANDS =       117.30552787
  atomic energy  EATOM  =     22254.96935453
  Solvation  Ediel_sol  =         0.00000000
  ---------------------------------------------------
  free energy    TOTEN  =      1149.57253387 eV

  energy without entropy =     1149.57253387  energy(sigma->0) =     1149.57253387


--------------------------------------------------------------------------------------------------------




----------------------------------------- Iteration    1(   2)  ---------------------------------------


     EDDAV:  cpu time    1.9446: real time    1.9455
       DOS:  cpu time    0.0001: real time    0.0001
    --------------------------------------------
      LOOP:  cpu time    1.9470: real time    1.9504

 eigenvalue-minimisations  :   576
 total energy-change (2. order) :-0.1059343E+04  (-0.9287796E+03)
 number of electron     176.0000000 magnetization      48.0000000
 augmentation part      176.0000000 magnetization      48.0000000

 Free energy of the ion-electron system (eV)
  ---------------------------------------------------
  alpha Z        PSCENC =        26.06567791
  Ewald energy   TEWEN  =     30308.30404750
  -Hartree energ DENC   =    -50601.64358881
  -exchange      EXHF   =         0.00000000
  -V(xc)+E(xc)   XCENC  =       735.43066774
  PAW double counting   =     19635.47487684   -21326.33402971
  entropy T*S    EENTRO =         0.00000000
  eigenvalues    EBANDS =      -942.03708710
  atomic energy  EATOM  =     22254.96935453
  Solvation  Ediel_sol  =         0.00000000
  ---------------------------------------------------
  free energy    TOTEN  =        90.22991890 eV

  energy without entropy =       90.22991890  energy(sigma->0) =       90.22991890


--------------------------------------------------------------------------------------------------------




----------------------------------------- Iteration    1(   3)  ---------------------------------------


     EDDAV:  cpu time    2.1888: real time    2.1899
       DOS:  cpu time    0.0001: real time    0.0001
    --------------------------------------------
      LOOP:  cpu time    2.1910: real time    2.1949

 eigenvalue-minimisations  :   664
 total energy-change (2. order) :-0.1094181E+03  (-0.1032478E+03)
 number of electron     176.0000000 magnetization      48.0000000
 augmentation part      176.0000000 magnetization      48.0000000

 Free energy of the ion-electron system (eV)
  ---------------------------------------------------
  alpha Z        PSCENC =        26.06567791
  Ewald energy   TEWEN  =     30308.30404750
  -Hartree energ DENC   =    -50601.64358881
  -exchange      EXHF   =         0.00000000
  -V(xc)+E(xc)   XCENC  =       735.43066774
  PAW double counting   =     19635.47487684   -21326.33402971
  entropy T*S    EENTRO =        -0.00000000
  eigenvalues    EBANDS =     -1051.45514784
  atomic energy  EATOM  =     22254.96935453
  Solvation  Ediel_sol  =         0.00000000
  ---------------------------------------------------
  free energy    TOTEN  =       -19.18814184 eV

  energy without entropy =      -19.18814184  energy(sigma->0) =      -19.18814184


--------------------------------------------------------------------------------------------------------




----------------------------------------- Iteration    1(   4)  ---------------------------------------


     EDDAV:  cpu time    2.1222: real time    2.1239
       DOS:  cpu time    0.0001: real time    0.0001
    --------------------------------------------
      LOOP:  cpu time    2.1244: real time    2.1289

 eigenvalue-minimisations  :   648
 total energy-change (2. order) :-0.7469899E+01  (-0.7140927E+01)
 number of electron     176.0000000 magnetization      48.0000000
 augmentation part      176.0000000 magnetization      48.0000000

 Free energy of the ion-electron system (eV)
  ---------------------------------------------------
  alpha Z        PSCENC =        26.06567791
  Ewald energy   TEWEN  =     30308.30404750
  -Hartree energ DENC   =    -50601.64358881
  -exchange      EXHF   =         0.00000000
  -V(xc)+E(xc)   XCENC  =       735.43066774
  PAW double counting   =     19635.47487684   -21326.33402971
  entropy T*S    EENTRO =         0.00000000
  eigenvalues    EBANDS =     -1058.92504645
  atomic energy  EATOM  =     22254.96935453
  Solvation  Ediel_sol  =         0.00000000
  ---------------------------------------------------
  free energy    TOTEN  =       -26.65804045 eV

  energy without entropy =      -26.65804045  energy(sigma->0) =      -26.65804045


--------------------------------------------------------------------------------------------------------




----------------------------------------- Iteration    1(   5)  ---------------------------------------


     EDDAV:  cpu time    2.2246: real time    2.2263
       DOS:  cpu time    0.0001: real time    0.0001
    CHARGE:  cpu time    0.0917: real time    0.0917
    MIXING:  cpu time    0.0083: real time    0.0084
    --------------------------------------------
      LOOP:  cpu time    2.3271: real time    2.3315

 eigenvalue-minimisations  :   680
 total energy-change (2. order) :-0.2522505E+00  (-0.2517371E+00)
 number of electron     176.0000184 magnetization      41.8636504
 augmentation part      105.2642914 magnetization      40.5573122

 Broyden mixing:
  rms(total) = 0.72751E+01    rms(broyden)= 0.72739E+01
  rms(prec ) = 0.73576E+01
  weight for this iteration     100.00

 Free energy of the ion-electron system (eV)
  ---------------------------------------------------
  alpha Z        PSCENC =        26.06567791
  Ewald energy   TEWEN  =     30308.30404750
  -Hartree energ DENC   =    -50601.64358881
  -exchange      EXHF   =         0.00000000
  -V(xc)+E(xc)   XCENC  =       735.43066774
  PAW double counting   =     19635.47487684   -21326.33402971
  entropy T*S    EENTRO =         0.00000000
  eigenvalues    EBANDS =     -1059.17729697
  atomic energy  EATOM  =     22254.96935453
  Solvation  Ediel_sol  =         0.00000000
  ---------------------------------------------------
  free energy    TOTEN  =       -26.91029097 eV

  energy without entropy =      -26.91029097  energy(sigma->0) =      -26.91029097


--------------------------------------------------------------------------------------------------------




----------------------------------------- Iteration    1(   6)  ---------------------------------------


    POTLOK:  cpu time    0.3186: real time    0.3188
    SETDIJ:  cpu time    0.0086: real time    0.0086
     EDDAV:  cpu time    1.9053: real time    1.9078
       DOS:  cpu time    0.0001: real time    0.0001
    CHARGE:  cpu time    0.0911: real time    0.0911
    MIXING:  cpu time    0.0089: real time    0.0090
    --------------------------------------------
      LOOP:  cpu time    2.3358: real time    2.3413

 eigenvalue-minimisations  :   560
 total energy-change (2. order) : 0.1291158E+03  (-0.6839830E+02)
 number of electron     176.0000208 magnetization      37.8898001
 augmentation part      120.6966710 magnetization      23.2527980

 Broyden mixing:
  rms(total) = 0.29780E+01    rms(broyden)= 0.29758E+01
  rms(prec ) = 0.31423E+01
  weight for this iteration     100.00

 eigenvalues of (default mixing * dielectric matrix)
  average eigenvalue GAMMA=   0.9240
  0.9240

 Free energy of the ion-electron system (eV)
  ---------------------------------------------------
  alpha Z        PSCENC =        26.06567791
  Ewald energy   TEWEN  =     30308.30404750
  -Hartree energ DENC   =    -50203.67329882
  -exchange      EXHF   =         0.00000000
  -V(xc)+E(xc)   XCENC  =       811.37772536
  PAW double counting   =     19725.00181069   -21342.40613572
  entropy T*S    EENTRO =         0.00000000
  eigenvalues    EBANDS =     -1477.43371227
  atomic energy  EATOM  =     22254.96935453
  Solvation  Ediel_sol  =         0.00000000
  ---------------------------------------------------
  free energy    TOTEN  =       102.20546918 eV

  energy without entropy =      102.20546918  energy(sigma->0) =      102.20546918


--------------------------------------------------------------------------------------------------------




----------------------------------------- Iteration    1(   7)  ---------------------------------------


    POTLOK:  cpu time    0.3121: real time    0.3122
    SETDIJ:  cpu time    0.0080: real time    0.0080
     EDDAV:  cpu time    2.0861: real time    2.0885
       DOS:  cpu time    0.0001: real time    0.0001
    CHARGE:  cpu time    0.0915: real time    0.0915
    MIXING:  cpu time    0.0092: real time    0.0092
    --------------------------------------------
      LOOP:  cpu time    2.5103: real time    2.5154

 eigenvalue-minimisations  :   632
 total energy-change (2. order) :-0.2269319E+02  (-0.2739336E+02)
 number of electron     176.0000197 magnetization      33.4628174
 augmentation part      113.1821102 magnetization      18.4963927

 Broyden mixing:
  rms(total) = 0.14935E+01    rms(broyden)= 0.14924E+01
  rms(prec ) = 0.15242E+01
  weight for this iteration     100.00

 eigenvalues of (default mixing * dielectric matrix)
  average eigenvalue GAMMA=   0.8765
  1.0856  0.6673

 Free energy of the ion-electron system (eV)
  ---------------------------------------------------
  alpha Z        PSCENC =        26.06567791
  Ewald energy   TEWEN  =     30308.30404750
  -Hartree energ DENC   =    -50565.70475560
  -exchange      EXHF   =         0.00000000
  -V(xc)+E(xc)   XCENC  =       805.42768690
  PAW double counting   =     20294.60554854   -22043.16311608
  entropy T*S    EENTRO =         0.00000000
  eigenvalues    EBANDS =     -1000.99216192
  atomic energy  EATOM  =     22254.96935453
  Solvation  Ediel_sol  =         0.00000000
  ---------------------------------------------------
  free energy    TOTEN  =        79.51228177 eV

  energy without entropy =       79.51228177  energy(sigma->0) =       79.51228177


--------------------------------------------------------------------------------------------------------




----------------------------------------- Iteration    1(   8)  ---------------------------------------


    POTLOK:  cpu time    0.3116: real time    0.3116
    SETDIJ:  cpu time    0.0080: real time    0.0080
     EDDAV:  cpu time    2.1842: real time    2.1853
       DOS:  cpu time    0.0001: real time    0.0001
    CHARGE:  cpu time    0.0912: real time    0.0912
    MIXING:  cpu time    0.0097: real time    0.0097
    --------------------------------------------
      LOOP:  cpu time    2.6080: real time    2.6118

 eigenvalue-minimisations  :   672
 total energy-change (2. order) : 0.9577607E+01  (-0.2922525E+01)
 number of electron     176.0000184 magnetization      30.4247817
 augmentation part      112.8896900 magnetization      15.1373970

 Broyden mixing:
  rms(total) = 0.11396E+01    rms(broyden)= 0.11393E+01
  rms(prec ) = 0.11807E+01
  weight for this iteration     100.00

 eigenvalues of (default mixing * dielectric matrix)
  average eigenvalue GAMMA=   0.8646
  1.2129  0.6904  0.6904

 Free energy of the ion-electron system (eV)
  ---------------------------------------------------
  alpha Z        PSCENC =        26.06567791
  Ewald energy   TEWEN  =     30308.30404750
  -Hartree energ DENC   =    -50594.46362836
  -exchange      EXHF   =         0.00000000
  -V(xc)+E(xc)   XCENC  =       811.42212835
  PAW double counting   =     20591.69505322   -22337.98590869
  entropy T*S    EENTRO =         0.00000000
  eigenvalues    EBANDS =      -970.91683595
  atomic energy  EATOM  =     22254.96935453
  Solvation  Ediel_sol  =         0.00000000
  ---------------------------------------------------
  free energy    TOTEN  =        89.08988849 eV

  energy without entropy =       89.08988849  energy(sigma->0) =       89.08988849


--------------------------------------------------------------------------------------------------------




----------------------------------------- Iteration    1(   9)  ---------------------------------------


    POTLOK:  cpu time    0.3270: real time    0.3271
    SETDIJ:  cpu time    0.0088: real time    0.0088
     EDDAV:  cpu time    2.1220: real time    2.1231
       DOS:  cpu time    0.0001: real time    0.0001
    CHARGE:  cpu time    0.0915: real time    0.0915
    MIXING:  cpu time    0.0105: real time    0.0105
    --------------------------------------------
      LOOP:  cpu time    2.5631: real time    2.5667

 eigenvalue-minimisations  :   640
 total energy-change (2. order) :-0.1446758E+02  (-0.8480479E+00)
 number of electron     176.0000195 magnetization      24.5146774
 augmentation part      113.1729357 magnetization       9.7075106

 Broyden mixing:
  rms(total) = 0.81690E+00    rms(broyden)= 0.81662E+00
  rms(prec ) = 0.82950E+00
  weight for this iteration     100.00

 eigenvalues of (default mixing * dielectric matrix)
  average eigenvalue GAMMA=   0.9615
  1.3453  1.3453  0.6744  0.4810

 Free energy of the ion-electron system (eV)
  ---------------------------------------------------
  alpha Z        PSCENC =        26.06567791
  Ewald energy   TEWEN  =     30308.30404750
  -Hartree energ DENC   =    -50587.03905127
  -exchange      EXHF   =         0.00000000
  -V(xc)+E(xc)   XCENC  =       799.04437282
  PAW double counting   =     20682.77847027   -22420.99079868
  entropy T*S    EENTRO =         0.00000000
  eigenvalues    EBANDS =      -988.50976595
  atomic energy  EATOM  =     22254.96935453
  Solvation  Ediel_sol  =         0.00000000
  ---------------------------------------------------
  free energy    TOTEN  =        74.62230712 eV

  energy without entropy =       74.62230712  energy(sigma->0) =       74.62230712


--------------------------------------------------------------------------------------------------------




----------------------------------------- Iteration    1(  10)  ---------------------------------------


    POTLOK:  cpu time    0.3123: real time    0.3132
    SETDIJ:  cpu time    0.0086: real time    0.0086
     EDDAV:  cpu time    2.1103: real time    2.1126
       DOS:  cpu time    0.0001: real time    0.0001
    CHARGE:  cpu time    0.0885: real time    0.0885
    MIXING:  cpu time    0.0108: real time    0.0108
    --------------------------------------------
      LOOP:  cpu time    2.5340: real time    2.5398

 eigenvalue-minimisations  :   644
 total energy-change (2. order) :-0.3886942E+02  (-0.2453296E+01)
 number of electron     176.0000192 magnetization      21.1867825
 augmentation part      113.6171043 magnetization       9.5483524

 Broyden mixing:
  rms(total) = 0.64986E+00    rms(broyden)= 0.64906E+00
  rms(prec ) = 0.66918E+00
  weight for this iteration     100.00

 eigenvalues of (default mixing * dielectric matrix)
  average eigenvalue GAMMA=   1.0285
  1.9898  1.4316  0.6229  0.6229  0.4750

 Free energy of the ion-electron system (eV)
  ---------------------------------------------------
  alpha Z        PSCENC =        26.06567791
  Ewald energy   TEWEN  =     30308.30404750
  -Hartree energ DENC   =    -50569.35197777
  -exchange      EXHF   =         0.00000000
  -V(xc)+E(xc)   XCENC  =       768.17357999
  PAW double counting   =     20771.80954303   -22493.76737948
  entropy T*S    EENTRO =         0.00000000
  eigenvalues    EBANDS =     -1030.44995666
  atomic energy  EATOM  =     22254.96935453
  Solvation  Ediel_sol  =         0.00000000
  ---------------------------------------------------
  free energy    TOTEN  =        35.75288904 eV

  energy without entropy =       35.75288904  energy(sigma->0) =       35.75288904


--------------------------------------------------------------------------------------------------------




----------------------------------------- Iteration    1(  11)  ---------------------------------------


    POTLOK:  cpu time    0.3113: real time    0.3116
    SETDIJ:  cpu time    0.0081: real time    0.0081
     EDDAV:  cpu time    2.2235: real time    2.2249
       DOS:  cpu time    0.0002: real time    0.0002
    CHARGE:  cpu time    0.0893: real time    0.0894
    MIXING:  cpu time    0.0113: real time    0.0113
    --------------------------------------------
      LOOP:  cpu time    2.6470: real time    2.6509

 eigenvalue-minimisations  :   688
 total energy-change (2. order) :-0.1226159E+02  (-0.7861289E+00)
 number of electron     176.0000195 magnetization      17.1606410
 augmentation part      113.3239907 magnetization       6.3240732

 Broyden mixing:
  rms(total) = 0.46199E+00    rms(broyden)= 0.46180E+00
  rms(prec ) = 0.47299E+00
  weight for this iteration     100.00

 eigenvalues of (default mixing * dielectric matrix)
  average eigenvalue GAMMA=   1.1017
  2.5818  1.5792  0.6754  0.6754  0.6011  0.4971

 Free energy of the ion-electron system (eV)
  ---------------------------------------------------
  alpha Z        PSCENC =        26.06567791
  Ewald energy   TEWEN  =     30308.30404750
  -Hartree energ DENC   =    -50579.91111167
  -exchange      EXHF   =         0.00000000
  -V(xc)+E(xc)   XCENC  =       759.29582041
  PAW double counting   =     20814.96355540   -22534.51513571
  entropy T*S    EENTRO =        -0.00000000
  eigenvalues    EBANDS =     -1025.68090851
  atomic energy  EATOM  =     22254.96935453
  Solvation  Ediel_sol  =         0.00000000
  ---------------------------------------------------
  free energy    TOTEN  =        23.49129985 eV

  energy without entropy =       23.49129985  energy(sigma->0) =       23.49129985


--------------------------------------------------------------------------------------------------------




----------------------------------------- Iteration    1(  12)  ---------------------------------------


    POTLOK:  cpu time    0.3116: real time    0.3120
    SETDIJ:  cpu time    0.0080: real time    0.0080
     EDDAV:  cpu time    2.3216: real time    2.3227
       DOS:  cpu time    0.0001: real time    0.0001
    CHARGE:  cpu time    0.0902: real time    0.0902
    MIXING:  cpu time    0.0120: real time    0.0120
    --------------------------------------------
      LOOP:  cpu time    2.7467: real time    2.7509

 eigenvalue-minimisations  :   724
 total energy-change (2. order) :-0.2037082E+02  (-0.1231590E+01)
 number of electron     176.0000195 magnetization      13.4697205
 augmentation part      113.4629069 magnetization       6.8185302

 Broyden mixing:
  rms(total) = 0.52423E+00    rms(broyden)= 0.52262E+00
  rms(prec ) = 0.54438E+00
  weight for this iteration     100.00

 eigenvalues of (default mixing * dielectric matrix)
  average eigenvalue GAMMA=   1.0782
  3.1940  1.3775  0.7671  0.7671  0.6407  0.5063  0.2950

 Free energy of the ion-electron system (eV)
  ---------------------------------------------------
  alpha Z        PSCENC =        26.06567791
  Ewald energy   TEWEN  =     30308.30404750
  -Hartree energ DENC   =    -50579.36109022
  -exchange      EXHF   =         0.00000000
  -V(xc)+E(xc)   XCENC  =       743.48188559
  PAW double counting   =     20805.62202218   -22522.17551672
  entropy T*S    EENTRO =         0.00000000
  eigenvalues    EBANDS =     -1033.78590577
  atomic energy  EATOM  =     22254.96935453
  Solvation  Ediel_sol  =         0.00000000
  ---------------------------------------------------
  free energy    TOTEN  =         3.12047499 eV

  energy without entropy =        3.12047499  energy(sigma->0) =        3.12047499


--------------------------------------------------------------------------------------------------------




----------------------------------------- Iteration    1(  13)  ---------------------------------------


    POTLOK:  cpu time    0.3115: real time    0.3120
    SETDIJ:  cpu time    0.0081: real time    0.0081
     EDDAV:  cpu time    2.0856: real time    2.0869
       DOS:  cpu time    0.0001: real time    0.0001
    CHARGE:  cpu time    0.0898: real time    0.0898
    MIXING:  cpu time    0.0127: real time    0.0127
    --------------------------------------------
      LOOP:  cpu time    2.5109: real time    2.5153

 eigenvalue-minimisations  :   632
 total energy-change (2. order) :-0.9919539E+01  (-0.7999829E+00)
 number of electron     176.0000198 magnetization       9.3051730
 augmentation part      113.0529137 magnetization       3.3322651

 Broyden mixing:
  rms(total) = 0.31669E+00    rms(broyden)= 0.31648E+00
  rms(prec ) = 0.32795E+00
  weight for this iteration     100.00

 eigenvalues of (default mixing * dielectric matrix)
  average eigenvalue GAMMA=   1.2715
  4.3958  1.7977  0.8832  0.8832  0.6736  0.5698  0.5698  0.3986

 Free energy of the ion-electron system (eV)
  ---------------------------------------------------
  alpha Z        PSCENC =        26.06567791
  Ewald energy   TEWEN  =     30308.30404750
  -Hartree energ DENC   =    -50605.13690218
  -exchange      EXHF   =         0.00000000
  -V(xc)+E(xc)   XCENC  =       736.97257469
  PAW double counting   =     20856.61470277   -22574.84326502
  entropy T*S    EENTRO =        -0.00000000
  eigenvalues    EBANDS =     -1009.74525399
  atomic energy  EATOM  =     22254.96935453
  Solvation  Ediel_sol  =         0.00000000
  ---------------------------------------------------
  free energy    TOTEN  =        -6.79906380 eV

  energy without entropy =       -6.79906380  energy(sigma->0) =       -6.79906380


--------------------------------------------------------------------------------------------------------




----------------------------------------- Iteration    1(  14)  ---------------------------------------


    POTLOK:  cpu time    0.3114: real time    0.3114
    SETDIJ:  cpu time    0.0080: real time    0.0080
     EDDAV:  cpu time    2.1594: real time    2.1625
       DOS:  cpu time    0.0001: real time    0.0001
    CHARGE:  cpu time    0.0919: real time    0.0920
    MIXING:  cpu time    0.0144: real time    0.0144
    --------------------------------------------
      LOOP:  cpu time    2.5885: real time    2.5945

 eigenvalue-minimisations  :   648
 total energy-change (2. order) :-0.1763873E+02  (-0.1425265E+01)
 number of electron     176.0000200 magnetization       7.5858413
 augmentation part      113.0134793 magnetization       4.3911305

 Broyden mixing:
  rms(total) = 0.31433E+00    rms(broyden)= 0.31354E+00
  rms(prec ) = 0.33680E+00
  weight for this iteration     100.00

 eigenvalues of (default mixing * dielectric matrix)
  average eigenvalue GAMMA=   1.2338
  4.8701  1.8684  0.8438  0.8438  0.6817  0.6817  0.5491  0.4339  0.3318

 Free energy of the ion-electron system (eV)
  ---------------------------------------------------
  alpha Z        PSCENC =        26.06567791
  Ewald energy   TEWEN  =     30308.30404750
  -Hartree energ DENC   =    -50601.12720979
  -exchange      EXHF   =         0.00000000
  -V(xc)+E(xc)   XCENC  =       723.14378828
  PAW double counting   =     20803.17848860   -22517.68759691
  entropy T*S    EENTRO =         0.00000000
  eigenvalues    EBANDS =     -1021.28434823
  atomic energy  EATOM  =     22254.96935453
  Solvation  Ediel_sol  =         0.00000000
  ---------------------------------------------------
  free energy    TOTEN  =       -24.43779812 eV

  energy without entropy =      -24.43779812  energy(sigma->0) =      -24.43779812


--------------------------------------------------------------------------------------------------------




----------------------------------------- Iteration    1(  15)  ---------------------------------------


    POTLOK:  cpu time    0.3134: real time    0.3143
    SETDIJ:  cpu time    0.0085: real time    0.0085
     EDDAV:  cpu time    2.2601: real time    2.2624
       DOS:  cpu time    0.0002: real time    0.0002
    CHARGE:  cpu time    0.0892: real time    0.0892
    MIXING:  cpu time    0.0145: real time    0.0145
    --------------------------------------------
      LOOP:  cpu time    2.6891: real time    2.6948

 eigenvalue-minimisations  :   704
 total energy-change (2. order) :-0.4618460E+01  (-0.2517900E+00)
 number of electron     176.0000202 magnetization       6.1088593
 augmentation part      112.9005912 magnetization       3.3748518

 Broyden mixing:
  rms(total) = 0.21733E+00    rms(broyden)= 0.21724E+00
  rms(prec ) = 0.23292E+00
  weight for this iteration     100.00

 eigenvalues of (default mixing * dielectric matrix)
  average eigenvalue GAMMA=   1.2971
  5.1651  2.2286  1.0603  1.0603  0.7491  0.7491  0.5173  0.5173  0.5299  0.3940

 Free energy of the ion-electron system (eV)
  ---------------------------------------------------
  alpha Z        PSCENC =        26.06567791
  Ewald energy   TEWEN  =     30308.30404750
  -Hartree energ DENC   =    -50600.29790372
  -exchange      EXHF   =         0.00000000
  -V(xc)+E(xc)   XCENC  =       719.72371772
  PAW double counting   =     20785.91331849   -22499.79435378
  entropy T*S    EENTRO =         0.00000000
  eigenvalues    EBANDS =     -1023.94011672
  atomic energy  EATOM  =     22254.96935453
  Solvation  Ediel_sol  =         0.00000000
  ---------------------------------------------------
  free energy    TOTEN  =       -29.05625807 eV

  energy without entropy =      -29.05625807  energy(sigma->0) =      -29.05625807


--------------------------------------------------------------------------------------------------------




----------------------------------------- Iteration    1(  16)  ---------------------------------------


    POTLOK:  cpu time    0.3113: real time    0.3117
    SETDIJ:  cpu time    0.0080: real time    0.0080
     EDDAV:  cpu time    2.1224: real time    2.1237
       DOS:  cpu time    0.0001: real time    0.0001
    CHARGE:  cpu time    0.0891: real time    0.0891
    MIXING:  cpu time    0.0151: real time    0.0151
    --------------------------------------------
      LOOP:  cpu time    2.5492: real time    2.5536

 eigenvalue-minimisations  :   648
 total energy-change (2. order) :-0.4755220E+01  (-0.2396818E+00)
 number of electron     176.0000200 magnetization       4.5291905
 augmentation part      112.9662357 magnetization       2.2128171

 Broyden mixing:
  rms(total) = 0.15680E+00    rms(broyden)= 0.15676E+00
  rms(prec ) = 0.16983E+00
  weight for this iteration     100.00

 eigenvalues of (default mixing * dielectric matrix)
  average eigenvalue GAMMA=   1.3645
  5.9275  2.5480  1.1619  1.1619  0.8499  0.8499  0.5683  0.5683  0.5712  0.4117
  0.3908

 Free energy of the ion-electron system (eV)
  ---------------------------------------------------
  alpha Z        PSCENC =        26.06567791
  Ewald energy   TEWEN  =     30308.30404750
  -Hartree energ DENC   =    -50586.21412770
  -exchange      EXHF   =         0.00000000
  -V(xc)+E(xc)   XCENC  =       715.76080737
  PAW double counting   =     20733.74941441   -22446.60340091
  entropy T*S    EENTRO =         0.00000000
  eigenvalues    EBANDS =     -1039.84325112
  atomic energy  EATOM  =     22254.96935453
  Solvation  Ediel_sol  =         0.00000000
  ---------------------------------------------------
  free energy    TOTEN  =       -33.81147801 eV

  energy without entropy =      -33.81147801  energy(sigma->0) =      -33.81147801


--------------------------------------------------------------------------------------------------------




----------------------------------------- Iteration    1(  17)  ---------------------------------------


    POTLOK:  cpu time    0.3116: real time    0.3116
    SETDIJ:  cpu time    0.0080: real time    0.0080
     EDDAV:  cpu time    2.3199: real time    2.3225
       DOS:  cpu time    0.0001: real time    0.0001
    CHARGE:  cpu time    0.0891: real time    0.0891
    MIXING:  cpu time    0.0160: real time    0.0160
    --------------------------------------------
      LOOP:  cpu time    2.7481: real time    2.7534

 eigenvalue-minimisations  :   728
 total energy-change (2. order) :-0.3670333E+01  (-0.1172139E+00)
 number of electron     176.0000203 magnetization       3.8071082
 augmentation part      112.9857956 magnetization       1.7717068

 Broyden mixing:
  rms(total) = 0.95822E-01    rms(broyden)= 0.95780E-01
  rms(prec ) = 0.10152E+00
  weight for this iteration     100.00

 eigenvalues of (default mixing * dielectric matrix)
  average eigenvalue GAMMA=   1.3633
  6.3279  2.4566  1.4671  1.0344  1.0344  0.8028  0.6748  0.6748  0.5444  0.5444
  0.4058  0.3920

 Free energy of the ion-electron system (eV)
  ---------------------------------------------------
  alpha Z        PSCENC =        26.06567791
  Ewald energy   TEWEN  =     30308.30404750
  -Hartree energ DENC   =    -50573.53361209
  -exchange      EXHF   =         0.00000000
  -V(xc)+E(xc)   XCENC  =       712.40377152
  PAW double counting   =     20681.65163168   -22394.74011583
  entropy T*S    EENTRO =         0.00000000
  eigenvalues    EBANDS =     -1052.60256597
  atomic energy  EATOM  =     22254.96935453
  Solvation  Ediel_sol  =         0.00000000
  ---------------------------------------------------
  free energy    TOTEN  =       -37.48181076 eV

  energy without entropy =      -37.48181076  energy(sigma->0) =      -37.48181076


--------------------------------------------------------------------------------------------------------




----------------------------------------- Iteration    1(  18)  ---------------------------------------


    POTLOK:  cpu time    0.3115: real time    0.3116
    SETDIJ:  cpu time    0.0081: real time    0.0081
     EDDAV:  cpu time    2.0823: real time    2.0835
       DOS:  cpu time    0.0001: real time    0.0001
    CHARGE:  cpu time    0.0893: real time    0.0897
    MIXING:  cpu time    0.0170: real time    0.0170
    --------------------------------------------
      LOOP:  cpu time    2.5115: real time    2.5158

 eigenvalue-minimisations  :   632
 total energy-change (2. order) :-0.1373771E+01  (-0.2776630E-01)
 number of electron     176.0000202 magnetization       2.6503141
 augmentation part      112.9267732 magnetization       0.6657023

 Broyden mixing:
  rms(total) = 0.67934E-01    rms(broyden)= 0.67917E-01
  rms(prec ) = 0.73630E-01
  weight for this iteration     100.00

 eigenvalues of (default mixing * dielectric matrix)
  average eigenvalue GAMMA=   1.4283
  7.1780  2.5914  1.7056  1.1400  1.1400  0.8455  0.8455  0.6851  0.5881  0.5307
  0.5307  0.3933  0.3933

 Free energy of the ion-electron system (eV)
  ---------------------------------------------------
  alpha Z        PSCENC =        26.06567791
  Ewald energy   TEWEN  =     30308.30404750
  -Hartree energ DENC   =    -50571.35067573
  -exchange      EXHF   =         0.00000000
  -V(xc)+E(xc)   XCENC  =       711.23624302
  PAW double counting   =     20675.92464593   -22390.59712301
  entropy T*S    EENTRO =        -0.00000000
  eigenvalues    EBANDS =     -1053.40775162
  atomic energy  EATOM  =     22254.96935453
  Solvation  Ediel_sol  =         0.00000000
  ---------------------------------------------------
  free energy    TOTEN  =       -38.85558147 eV

  energy without entropy =      -38.85558147  energy(sigma->0) =      -38.85558147


--------------------------------------------------------------------------------------------------------




----------------------------------------- Iteration    1(  19)  ---------------------------------------


    POTLOK:  cpu time    0.3414: real time    0.3447
    SETDIJ:  cpu time    0.0081: real time    0.0081
     EDDAV:  cpu time    2.1227: real time    2.1240
       DOS:  cpu time    0.0002: real time    0.0002
    CHARGE:  cpu time    0.0892: real time    0.0892
    MIXING:  cpu time    0.0179: real time    0.0179
    --------------------------------------------
      LOOP:  cpu time    2.5827: real time    2.5901

 eigenvalue-minimisations  :   648
 total energy-change (2. order) :-0.1503074E+01  (-0.2681741E-01)
 number of electron     176.0000202 magnetization       2.4903599
 augmentation part      112.9114355 magnetization       0.6020167

 Broyden mixing:
  rms(total) = 0.48562E-01    rms(broyden)= 0.48548E-01
  rms(prec ) = 0.53937E-01
  weight for this iteration     100.00

 eigenvalues of (default mixing * dielectric matrix)
  average eigenvalue GAMMA=   1.4172
  7.2311  2.4032  2.4032  1.0527  1.0527  1.0066  1.0066  0.7578  0.5546  0.5546
  0.5526  0.4768  0.3943  0.3943

 Free energy of the ion-electron system (eV)
  ---------------------------------------------------
  alpha Z        PSCENC =        26.06567791
  Ewald energy   TEWEN  =     30308.30404750
  -Hartree energ DENC   =    -50564.88412556
  -exchange      EXHF   =         0.00000000
  -V(xc)+E(xc)   XCENC  =       709.74465086
  PAW double counting   =     20660.55902133   -22376.03213033
  entropy T*S    EENTRO =         0.00000000
  eigenvalues    EBANDS =     -1059.08515139
  atomic energy  EATOM  =     22254.96935453
  Solvation  Ediel_sol  =         0.00000000
  ---------------------------------------------------
  free energy    TOTEN  =       -40.35865516 eV

  energy without entropy =      -40.35865516  energy(sigma->0) =      -40.35865516


--------------------------------------------------------------------------------------------------------




----------------------------------------- Iteration    1(  20)  ---------------------------------------


    POTLOK:  cpu time    0.3117: real time    0.3121
    SETDIJ:  cpu time    0.0080: real time    0.0080
     EDDAV:  cpu time    2.1197: real time    2.1211
       DOS:  cpu time    0.0002: real time    0.0002
    CHARGE:  cpu time    0.0894: real time    0.0894
    MIXING:  cpu time    0.0191: real time    0.0191
    --------------------------------------------
      LOOP:  cpu time    2.5512: real time    2.5556

 eigenvalue-minimisations  :   648
 total energy-change (2. order) :-0.5950730E+00  (-0.4745384E-02)
 number of electron     176.0000202 magnetization       2.3924069
 augmentation part      112.9215205 magnetization       0.5077132

 Broyden mixing:
  rms(total) = 0.29709E-01    rms(broyden)= 0.29701E-01
  rms(prec ) = 0.34457E-01
  weight for this iteration     100.00

 eigenvalues of (default mixing * dielectric matrix)
  average eigenvalue GAMMA=   1.4336
  7.2656  3.0842  1.9654  1.7236  1.0253  1.0253  0.9018  0.8718  0.6802  0.6802
  0.5247  0.5247  0.3933  0.3933  0.4457

 Free energy of the ion-electron system (eV)
  ---------------------------------------------------
  alpha Z        PSCENC =        26.06567791
  Ewald energy   TEWEN  =     30308.30404750
  -Hartree energ DENC   =    -50559.03829141
  -exchange      EXHF   =         0.00000000
  -V(xc)+E(xc)   XCENC  =       709.11409180
  PAW double counting   =     20653.90266016   -22369.57838499
  entropy T*S    EENTRO =         0.00000000
  eigenvalues    EBANDS =     -1064.69288366
  atomic energy  EATOM  =     22254.96935453
  Solvation  Ediel_sol  =         0.00000000
  ---------------------------------------------------
  free energy    TOTEN  =       -40.95372817 eV

  energy without entropy =      -40.95372817  energy(sigma->0) =      -40.95372817


--------------------------------------------------------------------------------------------------------




----------------------------------------- Iteration    1(  21)  ---------------------------------------


    POTLOK:  cpu time    0.3114: real time    0.3119
    SETDIJ:  cpu time    0.0080: real time    0.0080
     EDDAV:  cpu time    2.1788: real time    2.1812
       DOS:  cpu time    0.0001: real time    0.0001
    CHARGE:  cpu time    0.0901: real time    0.0901
    MIXING:  cpu time    0.0201: real time    0.0202
    --------------------------------------------
      LOOP:  cpu time    2.6117: real time    2.6172

 eigenvalue-minimisations  :   672
 total energy-change (2. order) :-0.4705619E+00  (-0.1638879E-02)
 number of electron     176.0000202 magnetization       2.2497731
 augmentation part      112.9331068 magnetization       0.3575113

 Broyden mixing:
  rms(total) = 0.18618E-01    rms(broyden)= 0.18611E-01
  rms(prec ) = 0.22242E-01
  weight for this iteration     100.00

 eigenvalues of (default mixing * dielectric matrix)
  average eigenvalue GAMMA=   1.4669
  7.4774  3.7938  1.9979  1.9979  1.0591  1.0591  0.9328  0.9328  0.6770  0.6770
  0.5314  0.5314  0.5611  0.4568  0.3927  0.3927

 Free energy of the ion-electron system (eV)
  ---------------------------------------------------
  alpha Z        PSCENC =        26.06567791
  Ewald energy   TEWEN  =     30308.30404750
  -Hartree energ DENC   =    -50552.96842316
  -exchange      EXHF   =         0.00000000
  -V(xc)+E(xc)   XCENC  =       708.60121581
  PAW double counting   =     20650.07120994   -22365.84041266
  entropy T*S    EENTRO =         0.00000000
  eigenvalues    EBANDS =     -1070.62695996
  atomic energy  EATOM  =     22254.96935453
  Solvation  Ediel_sol  =         0.00000000
  ---------------------------------------------------
  free energy    TOTEN  =       -41.42429010 eV

  energy without entropy =      -41.42429010  energy(sigma->0) =      -41.42429010


--------------------------------------------------------------------------------------------------------




----------------------------------------- Iteration    1(  22)  ---------------------------------------


    POTLOK:  cpu time    0.3113: real time    0.3117
    SETDIJ:  cpu time    0.0081: real time    0.0081
     EDDAV:  cpu time    2.3296: real time    2.3314
       DOS:  cpu time    0.0001: real time    0.0001
    CHARGE:  cpu time    0.0910: real time    0.0910
    MIXING:  cpu time    0.0231: real time    0.0231
    --------------------------------------------
      LOOP:  cpu time    2.7664: real time    2.7713

 eigenvalue-minimisations  :   720
 total energy-change (2. order) :-0.2530427E+00  (-0.7361886E-03)
 number of electron     176.0000202 magnetization       2.1573914
 augmentation part      112.9534670 magnetization       0.2716662

 Broyden mixing:
  rms(total) = 0.96505E-02    rms(broyden)= 0.96453E-02
  rms(prec ) = 0.12217E-01
  weight for this iteration     100.00

 eigenvalues of (default mixing * dielectric matrix)
  average eigenvalue GAMMA=   1.4434
  7.6227  3.7656  2.0509  2.0509  1.1986  1.0365  1.0365  0.8343  0.7592  0.7592
  0.6491  0.5321  0.5321  0.3930  0.3930  0.4789  0.4453

 Free energy of the ion-electron system (eV)
  ---------------------------------------------------
  alpha Z        PSCENC =        26.06567791
  Ewald energy   TEWEN  =     30308.30404750
  -Hartree energ DENC   =    -50548.13786848
  -exchange      EXHF   =         0.00000000
  -V(xc)+E(xc)   XCENC  =       708.29611925
  PAW double counting   =     20646.31134025   -22362.01539473
  entropy T*S    EENTRO =         0.00000000
  eigenvalues    EBANDS =     -1075.47060900
  atomic energy  EATOM  =     22254.96935453
  Solvation  Ediel_sol  =         0.00000000
  ---------------------------------------------------
  free energy    TOTEN  =       -41.67733279 eV

  energy without entropy =      -41.67733279  energy(sigma->0) =      -41.67733279


--------------------------------------------------------------------------------------------------------




----------------------------------------- Iteration    1(  23)  ---------------------------------------


    POTLOK:  cpu time    0.3129: real time    0.3139
    SETDIJ:  cpu time    0.0086: real time    0.0086
     EDDAV:  cpu time    2.2233: real time    2.2251
       DOS:  cpu time    0.0001: real time    0.0001
    CHARGE:  cpu time    0.0911: real time    0.0911
    MIXING:  cpu time    0.0243: real time    0.0243
    --------------------------------------------
      LOOP:  cpu time    2.6634: real time    2.6689

 eigenvalue-minimisations  :   684
 total energy-change (2. order) :-0.7406244E-01  (-0.1980711E-03)
 number of electron     176.0000202 magnetization       2.0908637
 augmentation part      112.9561012 magnetization       0.2067578

 Broyden mixing:
  rms(total) = 0.68128E-02    rms(broyden)= 0.68114E-02
  rms(prec ) = 0.88412E-02
  weight for this iteration     100.00

 eigenvalues of (default mixing * dielectric matrix)
  average eigenvalue GAMMA=   1.4531
  7.6913  3.7408  2.4749  1.7371  1.7371  1.0546  1.0546  0.9877  0.8208  0.8208
  0.6422  0.6422  0.5324  0.5324  0.3917  0.3917  0.4523  0.4523

 Free energy of the ion-electron system (eV)
  ---------------------------------------------------
  alpha Z        PSCENC =        26.06567791
  Ewald energy   TEWEN  =     30308.30404750
  -Hartree energ DENC   =    -50546.36126018
  -exchange      EXHF   =         0.00000000
  -V(xc)+E(xc)   XCENC  =       708.21089044
  PAW double counting   =     20648.18818694   -22363.92456395
  entropy T*S    EENTRO =         0.00000000
  eigenvalues    EBANDS =     -1077.20372841
  atomic energy  EATOM  =     22254.96935453
  Solvation  Ediel_sol  =         0.00000000
  ---------------------------------------------------
  free energy    TOTEN  =       -41.75139523 eV

  energy without entropy =      -41.75139523  energy(sigma->0) =      -41.75139523


--------------------------------------------------------------------------------------------------------




----------------------------------------- Iteration    1(  24)  ---------------------------------------


    POTLOK:  cpu time    0.3227: real time    0.3238
    SETDIJ:  cpu time    0.0086: real time    0.0086
     EDDAV:  cpu time    2.1296: real time    2.1317
       DOS:  cpu time    0.0002: real time    0.0002
    CHARGE:  cpu time    0.0888: real time    0.0890
    MIXING:  cpu time    0.0245: real time    0.0245
    --------------------------------------------
      LOOP:  cpu time    2.5775: real time    2.5836

 eigenvalue-minimisations  :   648
 total energy-change (2. order) :-0.4071130E-01  (-0.1357148E-03)
 number of electron     176.0000202 magnetization       2.0543259
 augmentation part      112.9520021 magnetization       0.1712900

 Broyden mixing:
  rms(total) = 0.43960E-02    rms(broyden)= 0.43945E-02
  rms(prec ) = 0.60558E-02
  weight for this iteration     100.00

 eigenvalues of (default mixing * dielectric matrix)
  average eigenvalue GAMMA=   1.4433
  7.7304  3.9124  2.6737  1.7380  1.7380  1.2479  1.0457  1.0457  0.8206  0.8206
  0.6765  0.6765  0.5314  0.5314  0.5635  0.3921  0.3921  0.4430  0.4430

 Free energy of the ion-electron system (eV)
  ---------------------------------------------------
  alpha Z        PSCENC =        26.06567791
  Ewald energy   TEWEN  =     30308.30404750
  -Hartree energ DENC   =    -50544.84403551
  -exchange      EXHF   =         0.00000000
  -V(xc)+E(xc)   XCENC  =       708.16766954
  PAW double counting   =     20651.72420237   -22367.51439565
  entropy T*S    EENTRO =         0.00000000
  eigenvalues    EBANDS =     -1078.66462721
  atomic energy  EATOM  =     22254.96935453
  Solvation  Ediel_sol  =         0.00000000
  ---------------------------------------------------
  free energy    TOTEN  =       -41.79210653 eV

  energy without entropy =      -41.79210653  energy(sigma->0) =      -41.79210653


--------------------------------------------------------------------------------------------------------




----------------------------------------- Iteration    1(  25)  ---------------------------------------


    POTLOK:  cpu time    0.3113: real time    0.3114
    SETDIJ:  cpu time    0.0080: real time    0.0080
     EDDAV:  cpu time    2.1421: real time    2.1447
       DOS:  cpu time    0.0002: real time    0.0002
    CHARGE:  cpu time    0.0894: real time    0.0895
    MIXING:  cpu time    0.0262: real time    0.0262
    --------------------------------------------
      LOOP:  cpu time    2.5805: real time    2.5859

 eigenvalue-minimisations  :   656
 total energy-change (2. order) :-0.1158760E-01  (-0.6706984E-04)
 number of electron     176.0000202 magnetization       2.0339950
 augmentation part      112.9510609 magnetization       0.1522939

 Broyden mixing:
  rms(total) = 0.26923E-02    rms(broyden)= 0.26913E-02
  rms(prec ) = 0.41258E-02
  weight for this iteration     100.00

 eigenvalues of (default mixing * dielectric matrix)
  average eigenvalue GAMMA=   1.4431
  7.7397  4.1109  2.7943  2.0178  1.4710  1.4710  1.0456  1.0456  0.9255  0.8414
  0.8414  0.6602  0.6602  0.5326  0.5326  0.3920  0.3920  0.4864  0.4693  0.4322

 Free energy of the ion-electron system (eV)
  ---------------------------------------------------
  alpha Z        PSCENC =        26.06567791
  Ewald energy   TEWEN  =     30308.30404750
  -Hartree energ DENC   =    -50543.71373337
  -exchange      EXHF   =         0.00000000
  -V(xc)+E(xc)   XCENC  =       708.14945368
  PAW double counting   =     20653.19104725   -22368.98393508
  entropy T*S    EENTRO =         0.00000000
  eigenvalues    EBANDS =     -1079.78560654
  atomic energy  EATOM  =     22254.96935453
  Solvation  Ediel_sol  =         0.00000000
  ---------------------------------------------------
  free energy    TOTEN  =       -41.80369413 eV

  energy without entropy =      -41.80369413  energy(sigma->0) =      -41.80369413


--------------------------------------------------------------------------------------------------------




----------------------------------------- Iteration    1(  26)  ---------------------------------------


    POTLOK:  cpu time    0.3113: real time    0.3114
    SETDIJ:  cpu time    0.0081: real time    0.0081
     EDDAV:  cpu time    2.1900: real time    2.1914
       DOS:  cpu time    0.0002: real time    0.0002
    CHARGE:  cpu time    0.0894: real time    0.0894
    MIXING:  cpu time    0.0280: real time    0.0280
    --------------------------------------------
      LOOP:  cpu time    2.6303: real time    2.6343

 eigenvalue-minimisations  :   676
 total energy-change (2. order) :-0.6938438E-02  (-0.4730434E-04)
 number of electron     176.0000202 magnetization       2.0181700
 augmentation part      112.9515748 magnetization       0.1361066

 Broyden mixing:
  rms(total) = 0.19444E-02    rms(broyden)= 0.19440E-02
  rms(prec ) = 0.30254E-02
  weight for this iteration     100.00

 eigenvalues of (default mixing * dielectric matrix)
  average eigenvalue GAMMA=   1.4603
  7.7328  4.3628  2.8572  2.3566  1.6340  1.6340  1.0469  1.0469  0.9993  0.8651
  0.8651  0.7027  0.7027  0.6313  0.5314  0.5314  0.4966  0.3918  0.3918  0.4425
  0.4425

 Free energy of the ion-electron system (eV)
  ---------------------------------------------------
  alpha Z        PSCENC =        26.06567791
  Ewald energy   TEWEN  =     30308.30404750
  -Hartree energ DENC   =    -50542.57341901
  -exchange      EXHF   =         0.00000000
  -V(xc)+E(xc)   XCENC  =       708.13479492
  PAW double counting   =     20653.94862055   -22369.74095539
  entropy T*S    EENTRO =         0.00000000
  eigenvalues    EBANDS =     -1080.91875357
  atomic energy  EATOM  =     22254.96935453
  Solvation  Ediel_sol  =         0.00000000
  ---------------------------------------------------
  free energy    TOTEN  =       -41.81063257 eV

  energy without entropy =      -41.81063257  energy(sigma->0) =      -41.81063257


--------------------------------------------------------------------------------------------------------




----------------------------------------- Iteration    1(  27)  ---------------------------------------


    POTLOK:  cpu time    0.3107: real time    0.3118
    SETDIJ:  cpu time    0.0080: real time    0.0080
     EDDAV:  cpu time    2.2406: real time    2.2429
       DOS:  cpu time    0.0002: real time    0.0002
    CHARGE:  cpu time    0.0893: real time    0.0894
    MIXING:  cpu time    0.0301: real time    0.0302
    --------------------------------------------
      LOOP:  cpu time    2.6823: real time    2.6888

 eigenvalue-minimisations  :   696
 total energy-change (2. order) :-0.6093771E-02  (-0.4112870E-04)
 number of electron     176.0000202 magnetization       2.0053669
 augmentation part      112.9521577 magnetization       0.1229177

 Broyden mixing:
  rms(total) = 0.14106E-02    rms(broyden)= 0.14100E-02
  rms(prec ) = 0.20877E-02
  weight for this iteration     100.00

 eigenvalues of (default mixing * dielectric matrix)
  average eigenvalue GAMMA=   1.4670
  7.7610  4.4486  3.2007  2.5920  1.6742  1.6742  1.0426  1.0426  1.0489  1.0489
  0.8196  0.8196  0.6436  0.6436  0.6046  0.5297  0.5297  0.3918  0.3918  0.4657
  0.4631  0.4375

 Free energy of the ion-electron system (eV)
  ---------------------------------------------------
  alpha Z        PSCENC =        26.06567791
  Ewald energy   TEWEN  =     30308.30404750
  -Hartree energ DENC   =    -50541.34021601
  -exchange      EXHF   =         0.00000000
  -V(xc)+E(xc)   XCENC  =       708.12104975
  PAW double counting   =     20654.54860261   -22370.34621154
  entropy T*S    EENTRO =         0.00000000
  eigenvalues    EBANDS =     -1082.13903108
  atomic energy  EATOM  =     22254.96935453
  Solvation  Ediel_sol  =         0.00000000
  ---------------------------------------------------
  free energy    TOTEN  =       -41.81672634 eV

  energy without entropy =      -41.81672634  energy(sigma->0) =      -41.81672634


--------------------------------------------------------------------------------------------------------




----------------------------------------- Iteration    1(  28)  ---------------------------------------


    POTLOK:  cpu time    0.3105: real time    0.3108
    SETDIJ:  cpu time    0.0081: real time    0.0081
     EDDAV:  cpu time    2.3451: real time    2.3472
       DOS:  cpu time    0.0002: real time    0.0002
    CHARGE:  cpu time    0.0898: real time    0.0899
    MIXING:  cpu time    0.0314: real time    0.0314
    --------------------------------------------
      LOOP:  cpu time    2.7883: real time    2.7934

 eigenvalue-minimisations  :   736
 total energy-change (2. order) :-0.2526236E-02  (-0.1228359E-04)
 number of electron     176.0000202 magnetization       2.0027508
 augmentation part      112.9533460 magnetization       0.1210911

 Broyden mixing:
  rms(total) = 0.88337E-03    rms(broyden)= 0.88304E-03
  rms(prec ) = 0.13934E-02
  weight for this iteration     100.00

 eigenvalues of (default mixing * dielectric matrix)
  average eigenvalue GAMMA=   1.4848
  7.7477  4.7856  3.8070  2.3700  1.8665  1.4441  1.4441  1.0437  1.0437  0.9579
  0.9229  0.9229  0.7129  0.7129  0.5318  0.5318  0.5718  0.5916  0.3918  0.3918
  0.4625  0.4625  0.4339

 Free energy of the ion-electron system (eV)
  ---------------------------------------------------
  alpha Z        PSCENC =        26.06567791
  Ewald energy   TEWEN  =     30308.30404750
  -Hartree energ DENC   =    -50540.68680254
  -exchange      EXHF   =         0.00000000
  -V(xc)+E(xc)   XCENC  =       708.11379010
  PAW double counting   =     20654.61158743   -22370.40440957
  entropy T*S    EENTRO =         0.00000000
  eigenvalues    EBANDS =     -1082.79249793
  atomic energy  EATOM  =     22254.96935453
  Solvation  Ediel_sol  =         0.00000000
  ---------------------------------------------------
  free energy    TOTEN  =       -41.81925257 eV

  energy without entropy =      -41.81925257  energy(sigma->0) =      -41.81925257


--------------------------------------------------------------------------------------------------------




----------------------------------------- Iteration    1(  29)  ---------------------------------------


    POTLOK:  cpu time    0.3104: real time    0.3104
    SETDIJ:  cpu time    0.0079: real time    0.0079
     EDDAV:  cpu time    2.2415: real time    2.2440
       DOS:  cpu time    0.0002: real time    0.0002
    CHARGE:  cpu time    0.0893: real time    0.0893
    MIXING:  cpu time    0.0326: real time    0.0326
    --------------------------------------------
      LOOP:  cpu time    2.6851: real time    2.6903

 eigenvalue-minimisations  :   696
 total energy-change (2. order) :-0.2416444E-02  (-0.6597266E-05)
 number of electron     176.0000202 magnetization       1.9964279
 augmentation part      112.9523038 magnetization       0.1145530

 Broyden mixing:
  rms(total) = 0.72519E-03    rms(broyden)= 0.72503E-03
  rms(prec ) = 0.10797E-02
  weight for this iteration     100.00

 eigenvalues of (default mixing * dielectric matrix)
  average eigenvalue GAMMA=   1.4970
  7.7804  4.9938  4.2089  2.1903  2.1903  1.5507  1.5507  1.0464  1.0464  0.9999
  0.9999  0.8228  0.8228  0.7621  0.6201  0.6201  0.5303  0.5303  0.5171  0.3918
  0.3918  0.4636  0.4636  0.4335

 Free energy of the ion-electron system (eV)
  ---------------------------------------------------
  alpha Z        PSCENC =        26.06567791
  Ewald energy   TEWEN  =     30308.30404750
  -Hartree energ DENC   =    -50540.33469089
  -exchange      EXHF   =         0.00000000
  -V(xc)+E(xc)   XCENC  =       708.11184995
  PAW double counting   =     20654.80463519   -22370.61359736
  entropy T*S    EENTRO =         0.00000000
  eigenvalues    EBANDS =     -1083.12894584
  atomic energy  EATOM  =     22254.96935453
  Solvation  Ediel_sol  =         0.00000000
  ---------------------------------------------------
  free energy    TOTEN  =       -41.82166902 eV

  energy without entropy =      -41.82166902  energy(sigma->0) =      -41.82166902


--------------------------------------------------------------------------------------------------------




----------------------------------------- Iteration    1(  30)  ---------------------------------------


    POTLOK:  cpu time    0.3097: real time    0.3098
    SETDIJ:  cpu time    0.0080: real time    0.0080
     EDDAV:  cpu time    2.1261: real time    2.1278
       DOS:  cpu time    0.0002: real time    0.0002
    CHARGE:  cpu time    0.0893: real time    0.0894
    MIXING:  cpu time    0.0341: real time    0.0341
    --------------------------------------------
      LOOP:  cpu time    2.5706: real time    2.5750

 eigenvalue-minimisations  :   648
 total energy-change (2. order) :-0.7165269E-03  (-0.3600480E-05)
 number of electron     176.0000202 magnetization       1.9976064
 augmentation part      112.9524532 magnetization       0.1163929

 Broyden mixing:
  rms(total) = 0.54332E-03    rms(broyden)= 0.54313E-03
  rms(prec ) = 0.79131E-03
  weight for this iteration     100.00

 eigenvalues of (default mixing * dielectric matrix)
  average eigenvalue GAMMA=   1.5219
  7.7485  5.8114  4.1358  2.4398  2.4398  1.5954  1.5954  1.0430  1.0430  1.0661
  1.0661  0.8907  0.8907  0.7397  0.6618  0.6618  0.5327  0.5327  0.5180  0.5180
  0.3918  0.3918  0.4321  0.4502  0.4502

 Free energy of the ion-electron system (eV)
  ---------------------------------------------------
  alpha Z        PSCENC =        26.06567791
  Ewald energy   TEWEN  =     30308.30404750
  -Hartree energ DENC   =    -50540.04378981
  -exchange      EXHF   =         0.00000000
  -V(xc)+E(xc)   XCENC  =       708.10970495
  PAW double counting   =     20654.69744225   -22370.50945224
  entropy T*S    EENTRO =         0.00000000
  eigenvalues    EBANDS =     -1083.41537062
  atomic energy  EATOM  =     22254.96935453
  Solvation  Ediel_sol  =         0.00000000
  ---------------------------------------------------
  free energy    TOTEN  =       -41.82238555 eV

  energy without entropy =      -41.82238555  energy(sigma->0) =      -41.82238555


--------------------------------------------------------------------------------------------------------




----------------------------------------- Iteration    1(  31)  ---------------------------------------


    POTLOK:  cpu time    0.3099: real time    0.3100
    SETDIJ:  cpu time    0.0081: real time    0.0081
     EDDAV:  cpu time    2.1445: real time    2.1457
       DOS:  cpu time    0.0002: real time    0.0002
    CHARGE:  cpu time    0.0886: real time    0.0889
    MIXING:  cpu time    0.0352: real time    0.0352
    --------------------------------------------
      LOOP:  cpu time    2.5898: real time    2.5941

 eigenvalue-minimisations  :   656
 total energy-change (2. order) :-0.2461607E-04  (-0.1787871E-05)
 number of electron     176.0000202 magnetization       1.9982161
 augmentation part      112.9525828 magnetization       0.1168636

 Broyden mixing:
  rms(total) = 0.31252E-03    rms(broyden)= 0.31243E-03
  rms(prec ) = 0.49524E-03
  weight for this iteration     100.00

 eigenvalues of (default mixing * dielectric matrix)
  average eigenvalue GAMMA=   1.5293
  7.7348  6.3050  4.0923  2.8609  2.0296  2.0296  1.3784  1.3784  1.0446  1.0446
  1.0341  1.0341  0.8194  0.8194  0.6783  0.6783  0.6052  0.5317  0.5317  0.3918
  0.3918  0.5219  0.5016  0.4465  0.4465  0.4308

 Free energy of the ion-electron system (eV)
  ---------------------------------------------------
  alpha Z        PSCENC =        26.06567791
  Ewald energy   TEWEN  =     30308.30404750
  -Hartree energ DENC   =    -50539.77715405
  -exchange      EXHF   =         0.00000000
  -V(xc)+E(xc)   XCENC  =       708.10855536
  PAW double counting   =     20654.61034635   -22370.42589740
  entropy T*S    EENTRO =         0.00000000
  eigenvalues    EBANDS =     -1083.67734035
  atomic energy  EATOM  =     22254.96935453
  Solvation  Ediel_sol  =         0.00000000
  ---------------------------------------------------
  free energy    TOTEN  =       -41.82241016 eV

  energy without entropy =      -41.82241016  energy(sigma->0) =      -41.82241016


--------------------------------------------------------------------------------------------------------




----------------------------------------- Iteration    1(  32)  ---------------------------------------


    POTLOK:  cpu time    0.3101: real time    0.3102
    SETDIJ:  cpu time    0.0080: real time    0.0080
     EDDAV:  cpu time    1.6506: real time    1.6515
       DOS:  cpu time    0.0001: real time    0.0001
    CHARGE:  cpu time    0.0900: real time    0.0900
    MIXING:  cpu time    0.0366: real time    0.0367
    --------------------------------------------
[...]
 total charge-density along one line
 
 soft charge-density along one line, spin component           2
         0         1         2         3         4         5         6         7         8         9
 total charge-density along one line
 
 pseudopotential strength for first ion, spin component:           1
-10.622   0.009   0.022  -0.004   0.006   1.091  -0.007  -0.015
  0.009 -10.607   0.002  -0.007  -0.000  -0.007   1.081  -0.001
  0.022   0.002 -10.623   0.006  -0.003  -0.015  -0.001   1.094
 -0.004  -0.007   0.006 -10.605   0.014   0.003   0.005  -0.005
  0.006  -0.000  -0.003   0.014 -10.610  -0.004  -0.000   0.002
  1.091  -0.007  -0.015   0.003  -0.004   6.247   0.004   0.010
 -0.007   1.081  -0.001   0.005  -0.000   0.004   6.255   0.000
 -0.015  -0.001   1.094  -0.005   0.002   0.010   0.000   6.244
  0.003   0.005  -0.005   1.081  -0.011  -0.003  -0.002   0.003
 -0.004  -0.000   0.002  -0.011   1.083   0.003   0.000   0.001
  0.002   0.001   0.001  -0.003   0.001   0.001  -0.001  -0.002
  0.003   0.003   0.002  -0.006   0.002   0.003  -0.001  -0.004
  0.005  -0.005  -0.011  -0.000  -0.019  -0.002   0.004   0.007
 -0.000   0.019  -0.005   0.007   0.000   0.001  -0.013   0.004
  0.019  -0.000  -0.002  -0.005   0.006  -0.012   0.001   0.001
  0.004  -0.006  -0.011  -0.001  -0.021  -0.001   0.005   0.007
 -0.001   0.021  -0.006   0.007   0.000   0.001  -0.014   0.005
  0.020  -0.001  -0.002  -0.006   0.006  -0.012   0.001   0.000
 pseudopotential strength for first ion, spin component:           2
-10.602   0.008   0.010   0.000   0.003   1.075  -0.006  -0.007
  0.008 -10.597   0.000  -0.009   0.001  -0.006   1.072   0.000
  0.010   0.000 -10.596   0.004  -0.002  -0.007   0.000   1.072
  0.000  -0.009   0.004 -10.594   0.012   0.000   0.007  -0.003
  0.003   0.001  -0.002   0.012 -10.599  -0.002  -0.001   0.001
  1.075  -0.006  -0.007   0.000  -0.002   6.258   0.003   0.004
 -0.006   1.072   0.000   0.007  -0.001   0.003   6.260  -0.000
 -0.007   0.000   1.072  -0.003   0.001   0.004  -0.000   6.258
  0.000   0.007  -0.003   1.071  -0.009  -0.000  -0.004   0.001
 -0.002  -0.001   0.001  -0.009   1.073   0.002   0.001   0.001
  0.001   0.001   0.000  -0.002   0.000   0.000  -0.001  -0.001
  0.001   0.002   0.001  -0.004   0.001   0.001  -0.001  -0.002
  0.007  -0.006  -0.012   0.000  -0.020  -0.004   0.004   0.008
  0.000   0.020  -0.007   0.007   0.000  -0.000  -0.014   0.006
  0.020   0.000  -0.004  -0.005   0.007  -0.014  -0.000   0.002
  0.008  -0.007  -0.013   0.000  -0.022  -0.004   0.005   0.009
  0.000   0.022  -0.009   0.008   0.000  -0.000  -0.015   0.007
  0.022   0.000  -0.004  -0.006   0.008  -0.015  -0.000   0.002
 total augmentation occupancy for first ion, spin component:           1
  1.947   0.001   0.004  -0.004   0.007  -0.009  -0.000  -0.003   0.002  -0.004  -0.002   0.006  -0.024  -0.006  -0.066   0.009
  0.001   1.960  -0.002   0.005   0.002  -0.000  -0.015  -0.002  -0.002  -0.000  -0.017  -0.002   0.003  -0.061  -0.003  -0.006
  0.004  -0.002   1.939  -0.001   0.003  -0.003  -0.002  -0.008  -0.001   0.002   0.002  -0.004   0.030   0.013   0.025  -0.016
 -0.004   0.005  -0.001   1.946   0.004   0.002  -0.002  -0.001  -0.019  -0.006   0.015   0.002  -0.004  -0.010   0.020   0.001
  0.007   0.002   0.003   0.004   1.954  -0.004  -0.000   0.002  -0.006  -0.017  -0.009  -0.000   0.057   0.009  -0.018  -0.029
 -0.009  -0.000  -0.003   0.002  -0.004   0.009  -0.000  -0.001  -0.001   0.001   0.003  -0.001  -0.002  -0.000  -0.023   0.000
 -0.000  -0.015  -0.002  -0.002  -0.000  -0.000   0.012  -0.001   0.000  -0.000   0.003   0.001   0.002  -0.030  -0.001  -0.000
 -0.003  -0.002  -0.008  -0.001   0.002  -0.001  -0.001   0.007  -0.001   0.002  -0.001   0.001   0.011   0.008   0.003  -0.001
  0.002  -0.002  -0.001  -0.019  -0.006  -0.001   0.000  -0.001   0.006  -0.002  -0.023   0.002  -0.001  -0.004   0.010  -0.000
 -0.004  -0.000   0.002  -0.006  -0.017   0.001  -0.000   0.002  -0.002   0.009  -0.016   0.004   0.022   0.004  -0.010  -0.001
 -0.002  -0.017   0.002   0.015  -0.009   0.003   0.003  -0.001  -0.023  -0.016   1.625  -0.109  -0.252   0.056  -0.073   0.032
  0.006  -0.002  -0.004   0.002  -0.000  -0.001   0.001   0.001   0.002   0.004  -0.109   0.012   0.031  -0.007   0.006  -0.003
 -0.024   0.003   0.030  -0.004   0.057  -0.002   0.002   0.011  -0.001   0.022  -0.252   0.031   0.115   0.005  -0.007  -0.011
 -0.006  -0.061   0.013  -0.010   0.009  -0.000  -0.030   0.008  -0.004   0.004   0.056  -0.007   0.005   0.119  -0.008   0.000
 -0.066  -0.003   0.025   0.020  -0.018  -0.023  -0.001   0.003   0.010  -0.010  -0.073   0.006  -0.007  -0.008   0.099  -0.001
  0.009  -0.006  -0.016   0.001  -0.029   0.000  -0.000  -0.001  -0.000  -0.001   0.032  -0.003  -0.011   0.000  -0.001   0.002
  0.000   0.031  -0.007   0.010  -0.001  -0.000   0.001  -0.000   0.000  -0.000  -0.007   0.001   0.000  -0.007   0.001  -0.000
  0.030   0.000  -0.006  -0.008   0.011   0.001  -0.000  -0.000  -0.001   0.000   0.009  -0.001  -0.001   0.001  -0.006   0.000
 total augmentation occupancy for first ion, spin component:           2
  0.007  -0.000  -0.008   0.002  -0.002  -0.001   0.000   0.002  -0.000   0.000   0.011   0.003   0.007   0.006   0.006   0.001
 -0.000   0.000  -0.001  -0.000   0.001   0.000   0.001   0.000   0.000  -0.000  -0.002  -0.001  -0.000   0.002   0.001   0.000
 -0.008  -0.001   0.009  -0.001   0.001   0.002   0.000  -0.002   0.000  -0.000  -0.007  -0.001  -0.006  -0.008  -0.007  -0.001
  0.002  -0.000  -0.001   0.000  -0.001  -0.000   0.000   0.000   0.000   0.001   0.006   0.001   0.003   0.001   0.002   0.000
 -0.002   0.001   0.001  -0.001   0.001   0.000  -0.000   0.000   0.001   0.001  -0.005  -0.001  -0.004  -0.000   0.000  -0.000
 -0.001   0.000   0.002  -0.000   0.000   0.000  -0.000  -0.000   0.000  -0.000  -0.002  -0.000  -0.002  -0.001  -0.001  -0.000
  0.000   0.001   0.000   0.000  -0.000  -0.000  -0.000  -0.000  -0.000   0.000   0.001   0.000   0.000   0.000  -0.000   0.000
  0.002   0.000  -0.002   0.000   0.000  -0.000  -0.000   0.001  -0.000  -0.000   0.002   0.000   0.001   0.002   0.002   0.000
 -0.000   0.000   0.000   0.000   0.001   0.000  -0.000  -0.000   0.000  -0.000  -0.001  -0.000  -0.001  -0.000  -0.000  -0.000
  0.000  -0.000  -0.000   0.001   0.001  -0.000   0.000  -0.000  -0.000   0.000   0.001   0.000   0.001   0.000  -0.000   0.000
  0.011  -0.002  -0.007   0.006  -0.005  -0.002   0.001   0.002  -0.001   0.001   0.023   0.001   0.016   0.008   0.003   0.000
  0.003  -0.001  -0.001   0.001  -0.001  -0.000   0.000   0.000  -0.000   0.000   0.001   0.000   0.001   0.000   0.000   0.000
  0.007  -0.000  -0.006   0.003  -0.004  -0.002   0.000   0.001  -0.001   0.001   0.016   0.001   0.006   0.005   0.002   0.000
  0.006   0.002  -0.008   0.001  -0.000  -0.001   0.000   0.002  -0.000   0.000   0.008   0.000   0.005   0.007   0.005   0.000
  0.006   0.001  -0.007   0.002   0.000  -0.001  -0.000   0.002  -0.000  -0.000   0.003   0.000   0.002   0.005   0.004   0.000
  0.001   0.000  -0.001   0.000  -0.000  -0.000   0.000   0.000  -0.000   0.000   0.000   0.000   0.000   0.000   0.000   0.000
  0.000   0.000  -0.000   0.000   0.000   0.000  -0.000  -0.000   0.000  -0.000  -0.000   0.000  -0.000  -0.000  -0.000   0.000
  0.001   0.000  -0.000   0.000   0.000  -0.000   0.000   0.000  -0.000   0.000   0.000   0.000   0.000   0.000   0.000   0.000


------------------------ aborting loop because EDIFF is reached ----------------------------------------


 


 total charge     
 
# of ion     s       p       d       tot
----------------------------------------
  1        0.450   0.175   9.274   9.900
  2        0.443   0.232   9.243   9.918
  3        0.463   0.164   9.265   9.892
  4        0.432   0.236   9.238   9.906
  5        0.475   0.220   9.239   9.934
  6        0.455   0.140   9.297   9.892
  7        0.463   0.363   9.193  10.020
  8        0.451   0.207   9.254   9.912
  9        0.451   0.177   9.274   9.901
 10        0.470   0.443   9.202  10.115
 11        0.433   0.220   9.266   9.919
 12        0.443   0.231   9.244   9.918
 13        0.451   0.206   9.254   9.911
 14        0.437   0.162   9.290   9.890
 15        0.463   0.164   9.265   9.892
 16        0.433   0.236   9.238   9.906
------------------------------------------------
tot        7.214   3.575 148.035 158.824
 


 magnetization (x)
 
# of ion     s       p       d       tot
----------------------------------------
  1        0.009   0.011   0.018   0.038
  2        0.031   0.017   0.012   0.059
  3        0.034   0.021   0.019   0.075
  4        0.041   0.032   0.015   0.088
  5       -0.004   0.001   0.014   0.011
  6       -0.003   0.002   0.005   0.004
  7        0.026   0.006   0.021   0.052
  8        0.025   0.010   0.018   0.054
  9        0.009   0.011   0.018   0.038
 10        0.018  -0.002   0.079   0.096
 11        0.005   0.030   0.002   0.037
 12        0.030   0.017   0.011   0.058
 13        0.026   0.010   0.018   0.055
 14        0.020   0.002   0.002   0.023
 15        0.035   0.021   0.019   0.075
 16        0.041   0.032   0.015   0.087
------------------------------------------------
tot        0.343   0.222   0.283   0.849
 
    CHARGE:  cpu time    0.0873: real time    0.0873
    FORLOC:  cpu time    0.0184: real time    0.0184
    FORNL :  cpu time    1.2950: real time    1.2958
    STRESS:  cpu time    1.1108: real time    1.1112
    FORCOR:  cpu time    0.3221: real time    0.3222
    FORHAR:  cpu time    0.0474: real time    0.0477
    MIXING:  cpu time    0.0113: real time    0.0113
    OFIELD:  cpu time    0.0001: real time    0.0001

  FORCE on cell =-STRESS in cart. coord.  units (eV):
  Direction    XX          YY          ZZ          XY          YZ          ZX
  --------------------------------------------------------------------------------------
  Alpha Z    26.06568    26.06568    26.06568
  Ewald   10657.61248  9474.65570 10178.64083  1136.90972  -171.19310 -5231.68088
  Hartree 17430.05508 16240.58540 16871.66850  1020.85781  -150.34516 -4691.75161
  E(xc)   -1027.12415 -1026.93968 -1026.86181     0.17015    -0.02669    -0.80028
  Local  -29655.40545-27282.64429-28612.15699 -2155.63935   320.21278  9913.51505
  n-local  -383.12290  -383.52574  -383.43396     0.21524    -0.02101    -1.08723
  augment  1502.63103  1502.38736  1500.01444    -1.12407     0.56702     5.26192
  Kinetic  1444.85130  1444.92958  1441.51484    -1.43383     0.83133     6.62679
  Fock        0.00000     0.00000     0.00000     0.00000     0.00000     0.00000
  -------------------------------------------------------------------------------------
  Total      -4.43693    -4.48601    -4.54848    -0.04431     0.02517     0.08377
  in kB      -0.98971    -1.00066    -1.01460    -0.00988     0.00561     0.01869
  external pressure =       -1.00 kB  Pullay stress =        0.00 kB


 VOLUME and BASIS-vectors are now :
 -----------------------------------------------------------------------------
  energy-cutoff  :      295.45
  volume of cell :     7182.62
      direct lattice vectors                 reciprocal lattice vectors
    19.294242000  0.000000000  0.000000000     0.051828934  0.000000000  0.000000000
     0.000000000 19.294242000  0.000000000     0.000000000  0.051828934  0.000000000
     0.000000000  0.000000000 19.294242000     0.000000000  0.000000000  0.051828934

  length of vectors
    19.294242000 19.294242000 19.294242000     0.051828934  0.051828934  0.051828934


 FORCES acting on ions
    electron-ion (+dipol)            ewald-force                    non-local-force                 convergence-correction
 -----------------------------------------------------------------------------------------------
   -.553E+03 -.134E+04 0.478E+03   0.550E+03 0.133E+04 -.476E+03   0.291E+01 0.782E+01 -.158E+01   0.461E-02 -.682E-02 -.303E-02
   -.101E+04 -.668E+03 -.847E+03   0.100E+04 0.667E+03 0.843E+03   0.259E+01 0.150E+01 0.438E+01   -.201E-02 0.683E-02 -.251E-03
   -.558E+02 -.928E+03 -.124E+04   0.550E+02 0.923E+03 0.123E+04   0.772E+00 0.475E+01 0.689E+01   -.180E-02 0.528E-02 -.257E-02
   0.442E+03 -.143E+04 0.208E+03   -.441E+03 0.143E+04 -.207E+03   -.155E+01 0.456E+01 -.652E+00   -.319E-02 -.210E-03 0.554E-03
   -.152E+04 -.391E+02 0.866E+02   0.151E+04 0.385E+02 -.841E+02   0.610E+01 0.603E+00 -.248E+01   0.174E-02 0.134E-02 -.132E-02
   -.535E+03 -.290E+03 0.135E+04   0.531E+03 0.288E+03 -.134E+04   0.355E+01 0.210E+01 -.986E+01   0.406E-02 -.666E-02 0.292E-03
   0.178E+03 -.210E+03 0.985E+03   -.180E+03 0.210E+03 -.986E+03   0.223E+01 -.156E+00 0.851E+00   -.423E-02 0.633E-02 0.152E-02
   0.135E+04 -.696E+03 -.447E+03   -.134E+04 0.693E+03 0.444E+03   -.543E+01 0.315E+01 0.304E+01   -.369E-03 -.187E-02 -.242E-02
   -.585E+03 0.102E+04 0.971E+03   0.582E+03 -.101E+04 -.966E+03   0.318E+01 -.636E+01 -.453E+01   -.367E-02 -.179E-02 -.341E-03
   -.191E+02 0.114E+03 -.526E+03   0.213E+02 -.114E+03 0.527E+03   -.219E+01 0.726E-01 -.522E+00   -.220E-02 0.369E-02 -.176E-02
   0.121E+04 -.206E+03 0.101E+04   -.120E+04 0.204E+03 -.998E+03   -.509E+01 0.149E+01 -.735E+01   0.265E-03 0.781E-03 -.873E-03
   -.103E+04 0.924E+03 -.518E+03   0.102E+04 -.921E+03 0.514E+03   0.255E+01 -.312E+01 0.351E+01   0.127E-02 -.365E-02 0.958E-03
   0.133E+04 0.846E+03 -.104E+03   -.132E+04 -.842E+03 0.103E+03   -.540E+01 -.421E+01 0.138E+01   0.638E-02 -.483E-02 0.517E-02
   0.459E+03 0.320E+03 -.144E+04   -.457E+03 -.318E+03 0.143E+04   -.268E+01 -.195E+01 0.897E+01   0.300E-02 0.349E-02 0.848E-03
   -.810E+02 0.136E+04 -.744E+03   0.800E+02 -.135E+04 0.740E+03   0.950E+00 -.721E+01 0.417E+01   0.300E-02 0.189E-02 -.179E-02
   0.412E+03 0.122E+04 0.779E+03   -.411E+03 -.122E+04 -.777E+03   -.152E+01 -.386E+01 -.249E+01   -.431E-02 0.242E-02 -.160E-02
 -----------------------------------------------------------------------------------------------
   -.926E+00 0.845E+00 -.362E+01   -.341E-12 -.455E-12 -.227E-12   0.989E+00 -.834E+00 0.374E+01   0.256E-02 0.622E-02 -.662E-02
 
 
 POSITION                                       TOTAL-FORCE (eV/Angst)
 -----------------------------------------------------------------------------------
     11.20510     11.99100      8.37452        -0.019045      0.012766      0.007365
     11.15362     10.85897     10.53795         0.012091     -0.014594     -0.003408
      9.18169     11.32132     12.03842        -0.001608     -0.012251      0.006834
      8.97883     11.77204      9.60661         0.014495      0.000996      0.001821
     12.46762      9.87442      8.76408         0.009190     -0.006395      0.004172
     11.58144     10.32204      6.54194        -0.014821      0.010898      0.010068
      9.96782      9.96198      8.20879         0.003486      0.002173     -0.001424
      7.09528     10.65372     10.88245        -0.002568     -0.000543      0.002809
     11.24730      8.05205      7.55576         0.006658      0.000116     -0.010493
      9.19080      9.45558     10.50967         0.005481     -0.008440      0.001829
      7.58898      9.84994      8.64873        -0.000621     -0.006090      0.001506
     11.19384      8.23118      9.98333         0.000915      0.005457      0.000676
      7.12116      8.16643     10.33536        -0.013926      0.013623     -0.014308
      8.12501      9.00326     12.50606        -0.006921     -0.004347     -0.002863
      9.22147      7.12424     11.13025        -0.005873      0.004648     -0.006437
      9.03397      7.71575      8.73003         0.013067      0.001981      0.001853
 -----------------------------------------------------------------------------------
    total drift:                                0.065792      0.017572      0.114500


--------------------------------------------------------------------------------------------------------



  FREE ENERGIE OF THE ION-ELECTRON SYSTEM (eV)
  ---------------------------------------------------
  free  energy   TOTEN  =       -41.82676360 eV

  energy  without entropy=      -41.82676360  energy(sigma->0) =      -41.82676360
 
 d Force = 0.3894969E-03[ 0.294E-03, 0.485E-03]  d Energy = 0.3795961E-03 0.990E-05
 d Force = 0.1757548E+01[ 0.176E+01, 0.175E+01]  d Ewald  = 0.1757552E+01-0.315E-05


--------------------------------------------------------------------------------------------------------


    POTLOK:  cpu time    0.3270: real time    0.3270


--------------------------------------------------------------------------------------------------------


 Conjugate gradient step on ions:
 trial-energy change:   -0.000380  1 .order   -0.000389   -0.000485   -0.000294
  (g-gl).g = 0.248E-03      g.g   = 0.336E-03  gl.gl    = 0.102E-02
 g(Force)  = 0.336E-03   g(Stress)= 0.000E+00 ortho     = 0.234E-05
 gamma     =   0.24229
 trial     =   1.44302
 opt step  =   3.66149  (harmonic =   3.66149) maximal distance =0.00511437
 next E    =   -41.826999   (d E  =  -0.00062)


--------------------------------------------------------------------------------------------------------


  
 reached required accuracy - stopping structural energy minimisation
     LOOP+:  cpu time   20.5302: real time   20.5634
    4ORBIT:  cpu time    0.0000: real time    0.0000
 


 total charge     
 
# of ion     s       p       d       tot
----------------------------------------
  1        0.450   0.175   9.274   9.900
  2        0.443   0.232   9.243   9.918
  3        0.463   0.164   9.265   9.892
  4        0.432   0.236   9.238   9.906
  5        0.475   0.220   9.239   9.934
  6        0.455   0.140   9.297   9.892
  7        0.463   0.363   9.193  10.020
  8        0.451   0.207   9.254   9.912
  9        0.451   0.177   9.274   9.901
 10        0.470   0.443   9.202  10.115
 11        0.433   0.220   9.266   9.919
 12        0.443   0.231   9.244   9.918
 13        0.451   0.206   9.254   9.911
 14        0.437   0.162   9.290   9.890
 15        0.463   0.164   9.265   9.892
 16        0.433   0.236   9.238   9.906
------------------------------------------------
tot        7.214   3.575 148.035 158.824
 


 magnetization (x)
 
# of ion     s       p       d       tot
----------------------------------------
  1        0.009   0.011   0.018   0.038
  2        0.031   0.017   0.012   0.059
  3        0.034   0.021   0.019   0.075
  4        0.041   0.032   0.015   0.088
  5       -0.004   0.001   0.014   0.011
  6       -0.003   0.002   0.005   0.004
  7        0.026   0.006   0.021   0.052
  8        0.025   0.010   0.018   0.054
  9        0.009   0.011   0.018   0.038
 10        0.018  -0.002   0.079   0.096
 11        0.005   0.030   0.002   0.037
 12        0.030   0.017   0.011   0.058
 13        0.026   0.010   0.018   0.055
 14        0.020   0.002   0.002   0.023
 15        0.035   0.021   0.019   0.075
 16        0.041   0.032   0.015   0.087
------------------------------------------------
tot        0.343   0.222   0.283   0.849
 

 total amount of memory used by VASP on root node    71303. kBytes
========================================================================

   base      :      30000. kBytes
   nonl-proj :       2769. kBytes
   fftplans  :       8851. kBytes
   grid      :      22296. kBytes
   one-center:         46. kBytes
   wavefun   :       7341. kBytes
 
  
  
 General timing and accounting informations for this job:
 ========================================================
  
                  Total CPU time used (sec):      258.500
                            User time (sec):      252.310
                          System time (sec):        6.190
                         Elapsed time (sec):      259.946
  
                   Maximum memory used (kb):      131476.
                   Average memory used (kb):           0.
  
                          Minor page faults:       561703
                          Major page faults:            0
                 Voluntary context switches:         2312
