 vasp.5.4.4.18Apr17-6-g9f103f2a35 (build Jan 23 2020 13:04:52) gamma-only       
  
 executed on           IFC91_ompi date 2020.12.30  12:25:32
 running on   44 total cores
 distrk:  each k-point on   44 cores,    1 groups
 distr:  one band on NCORES_PER_BAND=  11 cores,    4 groups


--------------------------------------------------------------------------------------------------------


 INCAR:
 POTCAR:    PAW_PBE Cu 22Jun2005                  
 POTCAR:    PAW_PBE Cu 22Jun2005                  
   VRHFIN =Cu: d10 p1                                                           
   LEXCH  = PE                                                                  
   EATOM  =  1390.9808 eV,  102.2342 Ry                                         
                                                                                
   TITEL  = PAW_PBE Cu 22Jun2005                                                
   LULTRA =        F    use ultrasoft PP ?                                      
   IUNSCR =        1    unscreen: 0-lin 1-nonlin 2-no                           
   RPACOR =    2.000    partial core radius                                     
   POMASS =   63.546; ZVAL   =   11.000    mass and valenz                      
   RCORE  =    2.300    outmost cutoff radius                                   
   RWIGS  =    2.200; RWIGS  =    1.164    wigner-seitz radius (au A)           
   ENMAX  =  295.446; ENMIN  =  221.585 eV                                      
   ICORE  =        3    local potential                                         
   LCOR   =        T    correct aug charges                                     
   LPAW   =        T    paw PP                                                  
   EAUG   =  586.980                                                            
   DEXC   =    0.000                                                            
   RMAX   =    2.344    core radius for proj-oper                               
   RAUG   =    1.300    factor for augmentation sphere                          
   RDEP   =    2.302    radius for radial grids                                 
   RDEPT  =    1.771    core radius for aug-charge                              
                                                                                
   Atomic configuration                                                         
    9 entries                                                                   
     n  l   j            E        occ.                                          
     1  0  0.50     -8850.2468   2.0000                                         
     2  0  0.50     -1062.3498   2.0000                                         
     2  1  1.50      -916.8226   6.0000                                         
     3  0  0.50      -114.6929   2.0000                                         
     3  1  1.50       -72.1325   6.0000                                         
     3  2  2.50        -5.0394  10.0000                                         
     4  0  0.50        -4.6097   1.0000                                         
     4  1  0.50        -4.0817   0.0000                                         
     4  3  2.50        -1.3606   0.0000                                         
   Description                                                                  
     l       E           TYP  RCUT    TYP  RCUT                                 
     2     -5.0393973     23  2.200                                             
     2     10.8846608     23  2.200                                             
     0     -4.6097109     23  2.200                                             
     0      8.2520465     23  2.200                                             
     1     -2.7211652     23  2.200                                             
     1     21.7055443     23  2.200                                             
     3      2.7211652     23  2.300                                             
  local pseudopotential read in
  partial core-charges read in
  partial kinetic energy density read in
  atomic valenz-charges read in
  non local Contribution for L=           2  read in
    real space projection operators read in
  non local Contribution for L=           2  read in
    real space projection operators read in
  non local Contribution for L=           0  read in
    real space projection operators read in
  non local Contribution for L=           0  read in
    real space projection operators read in
  non local Contribution for L=           1  read in
    real space projection operators read in
  non local Contribution for L=           1  read in
    real space projection operators read in
    PAW grid and wavefunctions read in
 
   number of l-projection  operators is LMAX  =           6
   number of lm-projection operators is LMMAX =          18
 

 ----------------------------------------------------------------------------- 
|                                                                             |
|  ADVICE TO THIS USER RUNNING 'VASP/VAMP'   (HEAR YOUR MASTER'S VOICE ...):  |
|                                                                             |
|      You have a (more or less) 'large supercell' and for larger cells       |
|      it might be more efficient to use real space projection opertators     |
|      So try LREAL= Auto  in the INCAR   file.                               |
|      Mind:          For very  accurate calculation you might also keep the  |
|      reciprocal projection scheme          (i.e. LREAL=.FALSE.)             |
|                                                                             |
 ----------------------------------------------------------------------------- 

  PAW_PBE Cu 22Jun2005                  :
 energy of atom  1       EATOM=-1390.9808
 kinetic energy error for atom=    0.0452 (will be added to EATOM!!)
 
 
 POSCAR: unknown system                          
  positions in direct lattice
  No initial velocities read in
 exchange correlation table for  LEXCH =        8
   RHO(1)=    0.500       N(1)  =     2000
   RHO(2)=  100.500       N(2)  =     4000
 


--------------------------------------------------------------------------------------------------------


 ion  position               nearest neighbor table
   1  0.514  0.332  0.463-   4 2.38   5 2.39   9 2.41
   2  0.461  0.572  0.613-  15 2.40   7 2.42  12 2.44  14 2.45  13 2.47   3 2.70
   3  0.519  0.484  0.528-  12 2.47   7 2.50   8 2.50  13 2.52   5 2.52  14 2.53   9 2.57   4 2.65
                             2 2.70  10 2.71  15 2.78
   4  0.541  0.434  0.406-   1 2.38   6 2.39  10 2.39   9 2.41  11 2.54   3 2.65
   5  0.467  0.375  0.565-   1 2.39   7 2.40   9 2.44  13 2.47   3 2.52
   6  0.655  0.470  0.413-   4 2.39   8 2.40  10 2.40
   7  0.490  0.459  0.648-   5 2.40   2 2.42  12 2.44   3 2.50  13 2.51
   8  0.636  0.530  0.516-   6 2.40  12 2.41  10 2.41  14 2.49   3 2.50
   9  0.432  0.421  0.457-  16 2.39   4 2.41   1 2.41  11 2.44   5 2.44  13 2.49   3 2.57
  10  0.566  0.551  0.419-   4 2.39  17 2.40   6 2.40   8 2.41  11 2.42  14 2.46   3 2.71
  11  0.450  0.523  0.392-  10 2.42   9 2.44  15 2.46  16 2.48  17 2.49   4 2.54
  12  0.579  0.539  0.622-   8 2.41   7 2.44   2 2.44   3 2.47  14 2.50
  13  0.398  0.478  0.563-  15 2.45   2 2.47   5 2.47   9 2.49  16 2.50   7 2.51   3 2.52
  14  0.540  0.609  0.525-  15 2.45   2 2.45  10 2.46   8 2.49  12 2.50  17 2.50   3 2.53
  15  0.423  0.580  0.499-  16 2.39   2 2.40  17 2.40  14 2.45  13 2.45  11 2.46   3 2.78
  16  0.343  0.502  0.453-   9 2.39  15 2.39  11 2.48  13 2.50
  17  0.486  0.641  0.416-  10 2.40  15 2.40  11 2.49  14 2.50
 
  LATTYP: Found a simple cubic cell.
 ALAT       =    19.8960560000
  
  Lattice vectors:
  
 A1 = (  19.8960560000,   0.0000000000,   0.0000000000)
 A2 = (   0.0000000000,  19.8960560000,   0.0000000000)
 A3 = (   0.0000000000,   0.0000000000,  19.8960560000)


Analysis of symmetry for initial positions (statically):
=====================================================================
 Subroutine PRICEL returns:
 Original cell was already a primitive cell.
 

 Routine SETGRP: Setting up the symmetry group for a 
 simple cubic supercell.


 Subroutine GETGRP returns: Found  1 space group operations
 (whereof  1 operations were pure point group operations)
 out of a pool of 48 trial point group operations.


The static configuration has the point symmetry C_1 .


Analysis of symmetry for dynamics (positions and initial velocities):
=====================================================================
 Subroutine PRICEL returns:
 Original cell was already a primitive cell.
 

 Routine SETGRP: Setting up the symmetry group for a 
 simple cubic supercell.


 Subroutine GETGRP returns: Found  1 space group operations
 (whereof  1 operations were pure point group operations)
 out of a pool of 48 trial point group operations.


The dynamic configuration has the point symmetry C_1 .


Analysis of structural, dynamic, and magnetic symmetry:
=====================================================================
 Subroutine PRICEL returns:
 Original cell was already a primitive cell.
 

 Routine SETGRP: Setting up the symmetry group for a 
 simple cubic supercell.


 Subroutine GETGRP returns: Found  1 space group operations
 (whereof  1 operations were pure point group operations)
 out of a pool of 48 trial point group operations.


The magnetic configuration has the point symmetry C_1 .


 Subroutine INISYM returns: Found  1 space group operations
 (whereof  1 operations are pure point group operations),
 and found     1 'primitive' translations

 
 
 KPOINTS: Gamma-point only                        
  k-points in reciprocal lattice
Space group operators:
 irot       det(A)        alpha          n_x          n_y          n_z        tau_x        tau_y        tau_z
    1     1.000000     0.000001     1.000000     0.000000     0.000000     0.000000     0.000000     0.000000


--------------------------------------------------------------------------------------------------------




 Dimension of arrays:
   k-points           NKPTS =      1   k-points in BZ     NKDIM =      1   number of bands    NBANDS=    140
   number of dos      NEDOS =    301   number of ions     NIONS =     17
   non local maximal  LDIM  =      6   non local SUM 2l+1 LMDIM =     18
   total plane-waves  NPLWV = 592704
   max r-space proj   IRMAX =      1   max aug-charges    IRDMAX=   2379
   dimension x,y,z NGX =    84 NGY =   84 NGZ =   84
   dimension x,y,z NGXF=   168 NGYF=  168 NGZF=  168
   support grid    NGXF=   168 NGYF=  168 NGZF=  168
   ions per type =              17
   NGX,Y,Z   is equivalent  to a cutoff of   7.02,  7.02,  7.02 a.u.
   NGXF,Y,Z  is equivalent  to a cutoff of  14.04, 14.04, 14.04 a.u.

 SYSTEM =  unknown system                          
 POSCAR =  unknown system                          

 Startparameter for this run:
   NWRITE =      2    write-flag & timer
   PREC   = normal    normal or accurate (medium, high low for compatibility)
   ISTART =      0    job   : 0-new  1-cont  2-samecut
   ICHARG =      2    charge: 1-file 2-atom 10-const
   ISPIN  =      2    spin polarized calculation?
   LNONCOLLINEAR =      F non collinear calculations
   LSORBIT =      F    spin-orbit coupling
   INIWAV =      1    electr: 0-lowe 1-rand  2-diag
   LASPH  =      F    aspherical Exc in radial PAW
   METAGGA=      F    non-selfconsistent MetaGGA calc.

 Electronic Relaxation 1
   ENCUT  =  295.4 eV  21.71 Ry    4.66 a.u.  27.88 27.88 27.88*2*pi/ulx,y,z
   ENINI  =  295.4     initial cutoff
   ENAUG  =  587.0 eV  augmentation charge cutoff
   NELM   =     60;   NELMIN=  2; NELMDL= -5     # of ELM steps 
   EDIFF  = 0.1E-04   stopping-criterion for ELM
   LREAL  =      F    real-space projection
   NLSPLINE    = F    spline interpolate recip. space projectors
   LCOMPAT=      F    compatible to vasp.4.4
   GGA_COMPAT  = T    GGA compatible to vasp.4.4-vasp.4.6
   LMAXPAW     = -100 max onsite density
   LMAXMIX     =    2 max onsite mixed and CHGCAR
   VOSKOWN=      0    Vosko Wilk Nusair interpolation
   ROPT   =    0.00000
 Ionic relaxation
   EDIFFG = -.1E+00   stopping-criterion for IOM
   NSW    =    101    number of steps for IOM
   NBLOCK =      1;   KBLOCK =    101    inner block; outer block 
   IBRION =      2    ionic relax: 0-MD 1-quasi-New 2-CG
   NFREE  =      1    steps in history (QN), initial steepest desc. (CG)
   ISIF   =      2    stress and relaxation
   IWAVPR =     11    prediction:  0-non 1-charg 2-wave 3-comb
   ISYM   =      2    0-nonsym 1-usesym 2-fastsym
   LCORR  =      T    Harris-Foulkes like correction to forces

   POTIM  = 0.5000    time-step for ionic-motion
   TEIN   =    0.0    initial temperature
   TEBEG  =    0.0;   TEEND  =   0.0 temperature during run
   SMASS  =  -3.00    Nose mass-parameter (am)
   estimated Nose-frequenzy (Omega)   =  0.10E-29 period in steps =****** mass=  -0.905E-26a.u.
   SCALEE = 1.0000    scale energy and forces
   NPACO  =    256;   APACO  = 16.0  distance and # of slots for P.C.
   PSTRESS=    0.0 pullay stress

  Mass of Ions in am
   POMASS =  63.55
  Ionic Valenz
   ZVAL   =  11.00
  Atomic Wigner-Seitz radii
   RWIGS  =  -1.00
  virtual crystal weights 
   VCA    =   1.00
   NELECT =     187.0000    total number of electrons
   NUPDOWN=      -1.0000    fix difference up-down

 DOS related values:
   EMIN   =  10.00;   EMAX   =-10.00  energy-range for DOS
   EFERMI =   0.00
   ISMEAR =     0;   SIGMA  =   0.00  broadening in eV -4-tet -1-fermi 0-gaus

 Electronic relaxation 2 (details)
   IALGO  =     38    algorithm
   LDIAG  =      T    sub-space diagonalisation (order eigenvalues)
   LSUBROT=      F    optimize rotation matrix (better conditioning)
   TURBO    =      0    0=normal 1=particle mesh
   IRESTART =      0    0=no restart 2=restart with 2 vectors
   NREBOOT  =      0    no. of reboots
   NMIN     =      0    reboot dimension
   EREF     =   0.00    reference energy to select bands
   IMIX   =      4    mixing-type and parameters
     AMIX     =   0.40;   BMIX     =  1.00
     AMIX_MAG =   1.60;   BMIX_MAG =  1.00
     AMIN     =   0.10
     WC   =   100.;   INIMIX=   1;  MIXPRE=   1;  MAXMIX= -45

 Intra band minimization:
   WEIMIN = 0.0010     energy-eigenvalue tresh-hold
   EBREAK =  0.18E-07  absolut break condition
   DEPER  =   0.30     relativ break condition  

   TIME   =   0.40     timestep for ELM

  volume/ion in A,a.u.               =     463.29      3126.43
  Fermi-wavevector in a.u.,A,eV,Ry     =   0.470531  0.889175  3.012324  0.221400
  Thomas-Fermi vector in A             =   1.462676
 
 Write flags
   LWAVE        =      F    write WAVECAR
   LDOWNSAMPLE  =      F    k-point downsampling of WAVECAR
   LCHARG       =      F    write CHGCAR
   LVTOT        =      F    write LOCPOT, total local potential
   LVHAR        =      F    write LOCPOT, Hartree potential only
   LELF         =      F    write electronic localiz. function (ELF)
   LORBIT       =     11    0 simple, 1 ext, 2 COOP (PROOUT), +10 PAW based schemes


 Dipole corrections
   LMONO  =      F    monopole corrections only (constant potential shift)
   LDIPOL =      F    correct potential (dipole corrections)
   IDIPOL =      0    1-x, 2-y, 3-z, 4-all directions 
   EPSILON=  1.0000000 bulk dielectric constant

 Exchange correlation treatment:
   GGA     =    PE    GGA type
   LEXCH   =     8    internal setting for exchange type
   VOSKOWN=      0    Vosko Wilk Nusair interpolation
   LHFCALC =     F    Hartree Fock is set to
   LHFONE  =     F    Hartree Fock one center treatment
   AEXX    =    0.0000 exact exchange contribution

 Linear response parameters
   LEPSILON=     F    determine dielectric tensor
   LRPA    =     F    only Hartree local field effects (RPA)
   LNABLA  =     F    use nabla operator in PAW spheres
   LVEL    =     F    velocity operator in full k-point grid
   LINTERFAST=   F  fast interpolation
   KINTER  =     0    interpolate to denser k-point grid
   CSHIFT  =0.1000    complex shift for real part using Kramers Kronig
   OMEGAMAX=  -1.0    maximum frequency
   DEG_THRESHOLD= 0.2000000E-02 threshold for treating states as degnerate
   RTIME   =   -0.100 relaxation time in fs
  (WPLASMAI=    0.000 imaginary part of plasma frequency in eV, 0.658/RTIME)
   DFIELD  = 0.0000000 0.0000000 0.0000000 field for delta impulse in time
 
 Orbital magnetization related:
   ORBITALMAG=     F  switch on orbital magnetization
   LCHIMAG   =     F  perturbation theory with respect to B field
   DQ        =  0.001000  dq finite difference perturbation B field
   LLRAUG    =     F  two centre corrections for induced B field



--------------------------------------------------------------------------------------------------------


 conjugate gradient relaxation of ions
 charge density and potential will be updated during run
 spin polarized calculation
 Variant of blocked Davidson
 Davidson routine will perform the subspace rotation
 perform sub-space diagonalisation
    after iterative eigenvector-optimisation
 modified Broyden-mixing scheme, WC =      100.0
 initial mixing is a Kerker type mixing with AMIX =  0.4000 and BMIX =      1.0000
 Hartree-type preconditioning will be used
 using additional bands           46
 reciprocal scheme for non local part
 use partial core corrections
 calculate Harris-corrections to forces 
   (improved forces if not selfconsistent)
 use gradient corrections 
 use of overlap-Matrix (Vanderbilt PP)
 Gauss-broadening in eV      SIGMA  =   0.00


--------------------------------------------------------------------------------------------------------


  energy-cutoff  :      295.45
  volume of cell :     7875.91
      direct lattice vectors                 reciprocal lattice vectors
    19.896056000  0.000000000  0.000000000     0.050261218  0.000000000  0.000000000
     0.000000000 19.896056000  0.000000000     0.000000000  0.050261218  0.000000000
     0.000000000  0.000000000 19.896056000     0.000000000  0.000000000  0.050261218

  length of vectors
    19.896056000 19.896056000 19.896056000     0.050261218  0.050261218  0.050261218


 
 k-points in units of 2pi/SCALE and weight: Gamma-point only                        
   0.00000000  0.00000000  0.00000000       1.000
 
 k-points in reciprocal lattice and weights: Gamma-point only                        
   0.00000000  0.00000000  0.00000000       1.000
 
 position of ions in fractional coordinates (direct lattice) 
   0.51439026  0.33224022  0.46309332
   0.46088419  0.57237916  0.61287918
   0.51946863  0.48362120  0.52826018
   0.54081623  0.43430951  0.40635607
   0.46679106  0.37456785  0.56506687
   0.65515963  0.46982098  0.41313808
   0.48958304  0.45919360  0.64759126
   0.63585976  0.52950536  0.51612918
   0.43194960  0.42095453  0.45720013
   0.56604046  0.55097175  0.41922119
   0.45045284  0.52318967  0.39246459
   0.57871632  0.53934003  0.62230085
   0.39795338  0.47791940  0.56320325
   0.53961751  0.60898703  0.52527161
   0.42290574  0.57993445  0.49879351
   0.34339325  0.50221167  0.45290620
   0.48601809  0.64085358  0.41612455
 
 position of ions in cartesian coordinates  (Angst):
  10.23433742  6.61027002  9.21373063
   9.16977765 11.38808782 12.19387849
  10.33537695  9.62215448 10.51029412
  10.76011000  8.64104633  8.08488312
   9.28730107  7.45242292 11.24260209
  13.03509269  9.34758453  8.21981838
   9.74077158  9.13614158 12.88451197
  12.65110139 10.53506829 10.26893507
   8.59409343  8.37533490  9.09647939
  11.26197269 10.96216479  8.34084827
   8.96223493 10.40941097  7.80849746
  11.51417231 10.73073944 12.38133256
   7.91770273  9.50871115 11.20552340
  10.73626020 12.11644005 10.45083337
   8.41415629 11.53840829  9.92402361
   6.83217133  9.99203151  9.01104712
   9.66984314 12.75045872  8.27923735
 


--------------------------------------------------------------------------------------------------------


 use parallel FFT for orbitals z direction half grid
 k-point  1 :   0.0000 0.0000 0.0000  plane waves:   45440

 maximum and minimum number of plane-waves per node :      4135     4124

 maximum number of plane-waves:     45440
 maximum index in each direction: 
   IXMAX=   27   IYMAX=   27   IZMAX=   27
   IXMIN=  -27   IYMIN=  -27   IZMIN=    0


 parallel 3D FFT for wavefunctions:
    minimum data exchange during FFTs selected (reduces bandwidth)
 parallel 3D FFT for charge:
    minimum data exchange during FFTs selected (reduces bandwidth)


 total amount of memory used by VASP MPI-rank0    54151. kBytes
=======================================================================

   base      :      30000. kBytes
   nonl-proj :       1718. kBytes
   fftplans  :       5013. kBytes
   grid      :      12741. kBytes
   one-center:         31. kBytes
   wavefun   :       4648. kBytes
 
     INWAV:  cpu time    0.0000: real time    0.0000
 Broyden mixing: mesh for mixing (old mesh)
   NGX = 55   NGY = 55   NGZ = 55
  (NGX  =168   NGY  =168   NGZ  =168)
  gives a total of 166375 points

 initial charge density was supplied:
 charge density of overlapping atoms calculated
 number of electron     187.0000000 magnetization      51.0000000
 keeping initial charge density in first step


--------------------------------------------------------------------------------------------------------


 Maximum index for augmentation-charges          197 (set IRDMAX)


--------------------------------------------------------------------------------------------------------


 First call to EWALD:  gamma=   0.089
 Maximum number of real-space cells 3x 3x 3
 Maximum number of reciprocal cells 3x 3x 3

    FEWALD:  cpu time    0.0040: real time    0.0013


--------------------------------------- Iteration      1(   1)  ---------------------------------------


    POTLOK:  cpu time    0.2160: real time    0.2255
    SETDIJ:  cpu time    0.0080: real time    0.0060
     EDDAV:  cpu time    1.5120: real time    1.5176
       DOS:  cpu time    0.0000: real time    0.0004
    --------------------------------------------
      LOOP:  cpu time    1.7360: real time    1.7494

 eigenvalue-minimisations  :   560
 total energy-change (2. order) : 0.1207182E+04  (-0.3712377E+04)
 number of electron     187.0000000 magnetization      51.0000000
 augmentation part      187.0000000 magnetization      51.0000000

 Free energy of the ion-electron system (eV)
  ---------------------------------------------------
  alpha Z        PSCENC =        26.83546235
  Ewald energy   TEWEN  =     33692.75237248
  -Hartree energ DENC   =    -55256.73861176
  -exchange      EXHF   =         0.00000000
  -V(xc)+E(xc)   XCENC  =       780.98220951
  PAW double counting   =     20862.69205665   -22659.22990656
  entropy T*S    EENTRO =         0.00000000
  eigenvalues    EBANDS =       113.98301018
  atomic energy  EATOM  =     23645.90493918
  Solvation  Ediel_sol  =         0.00000000
  ---------------------------------------------------
  free energy    TOTEN  =      1207.18153202 eV

  energy without entropy =     1207.18153202  energy(sigma->0) =     1207.18153202


--------------------------------------------------------------------------------------------------------




--------------------------------------- Iteration      1(   2)  ---------------------------------------


     EDDAV:  cpu time    1.5800: real time    1.5948
       DOS:  cpu time    0.0000: real time    0.0003
    --------------------------------------------
      LOOP:  cpu time    1.5800: real time    1.5951

 eigenvalue-minimisations  :   596
 total energy-change (2. order) :-0.1105447E+04  (-0.9644133E+03)
 number of electron     187.0000000 magnetization      51.0000000
 augmentation part      187.0000000 magnetization      51.0000000

 Free energy of the ion-electron system (eV)
  ---------------------------------------------------
  alpha Z        PSCENC =        26.83546235
  Ewald energy   TEWEN  =     33692.75237248
  -Hartree energ DENC   =    -55256.73861176
  -exchange      EXHF   =         0.00000000
  -V(xc)+E(xc)   XCENC  =       780.98220951
  PAW double counting   =     20862.69205665   -22659.22990656
  entropy T*S    EENTRO =         0.00000000
  eigenvalues    EBANDS =      -991.46354628
  atomic energy  EATOM  =     23645.90493918
  Solvation  Ediel_sol  =         0.00000000
  ---------------------------------------------------
  free energy    TOTEN  =       101.73497556 eV

  energy without entropy =      101.73497556  energy(sigma->0) =      101.73497556


--------------------------------------------------------------------------------------------------------




--------------------------------------- Iteration      1(   3)  ---------------------------------------


     EDDAV:  cpu time    1.7400: real time    1.7556
       DOS:  cpu time    0.0000: real time    0.0003
    --------------------------------------------
      LOOP:  cpu time    1.7400: real time    1.7559

 eigenvalue-minimisations  :   680
 total energy-change (2. order) :-0.1208420E+03  (-0.1141165E+03)
 number of electron     187.0000000 magnetization      51.0000000
 augmentation part      187.0000000 magnetization      51.0000000

 Free energy of the ion-electron system (eV)
  ---------------------------------------------------
  alpha Z        PSCENC =        26.83546235
  Ewald energy   TEWEN  =     33692.75237248
  -Hartree energ DENC   =    -55256.73861176
  -exchange      EXHF   =         0.00000000
  -V(xc)+E(xc)   XCENC  =       780.98220951
  PAW double counting   =     20862.69205665   -22659.22990656
  entropy T*S    EENTRO =         0.00000000
  eigenvalues    EBANDS =     -1112.30553857
  atomic energy  EATOM  =     23645.90493918
  Solvation  Ediel_sol  =         0.00000000
  ---------------------------------------------------
  free energy    TOTEN  =       -19.10701673 eV

  energy without entropy =      -19.10701673  energy(sigma->0) =      -19.10701673


--------------------------------------------------------------------------------------------------------




--------------------------------------- Iteration      1(   4)  ---------------------------------------


     EDDAV:  cpu time    1.7720: real time    1.7834
       DOS:  cpu time    0.0000: real time    0.0003
    --------------------------------------------
      LOOP:  cpu time    1.7720: real time    1.7837

 eigenvalue-minimisations  :   696
 total energy-change (2. order) :-0.9228708E+01  (-0.8634297E+01)
 number of electron     187.0000000 magnetization      51.0000000
 augmentation part      187.0000000 magnetization      51.0000000

 Free energy of the ion-electron system (eV)
  ---------------------------------------------------
  alpha Z        PSCENC =        26.83546235
  Ewald energy   TEWEN  =     33692.75237248
  -Hartree energ DENC   =    -55256.73861176
  -exchange      EXHF   =         0.00000000
  -V(xc)+E(xc)   XCENC  =       780.98220951
  PAW double counting   =     20862.69205665   -22659.22990656
  entropy T*S    EENTRO =         0.00000000
  eigenvalues    EBANDS =     -1121.53424639
  atomic energy  EATOM  =     23645.90493918
  Solvation  Ediel_sol  =         0.00000000
  ---------------------------------------------------
  free energy    TOTEN  =       -28.33572455 eV

  energy without entropy =      -28.33572455  energy(sigma->0) =      -28.33572455


--------------------------------------------------------------------------------------------------------




--------------------------------------- Iteration      1(   5)  ---------------------------------------


     EDDAV:  cpu time    1.7840: real time    1.7976
       DOS:  cpu time    0.0000: real time    0.0006
    CHARGE:  cpu time    0.0600: real time    0.0604
    MIXING:  cpu time    0.0080: real time    0.0061
    --------------------------------------------
      LOOP:  cpu time    1.8520: real time    1.8647

 eigenvalue-minimisations  :   704
 total energy-change (2. order) :-0.2833284E+00  (-0.2825245E+00)
 number of electron     186.9999699 magnetization      45.1961031
 augmentation part      110.4252835 magnetization      42.8239143

 Broyden mixing:
  rms(total) = 0.72876E+01    rms(broyden)= 0.72853E+01
  rms(prec ) = 0.73928E+01
  weight for this iteration     100.00

 Free energy of the ion-electron system (eV)
  ---------------------------------------------------
  alpha Z        PSCENC =        26.83546235
  Ewald energy   TEWEN  =     33692.75237248
  -Hartree energ DENC   =    -55256.73861176
  -exchange      EXHF   =         0.00000000
  -V(xc)+E(xc)   XCENC  =       780.98220951
  PAW double counting   =     20862.69205665   -22659.22990656
  entropy T*S    EENTRO =        -0.00000000
  eigenvalues    EBANDS =     -1121.81757478
  atomic energy  EATOM  =     23645.90493918
  Solvation  Ediel_sol  =         0.00000000
  ---------------------------------------------------
  free energy    TOTEN  =       -28.61905294 eV

  energy without entropy =      -28.61905294  energy(sigma->0) =      -28.61905294


--------------------------------------------------------------------------------------------------------




--------------------------------------- Iteration      1(   6)  ---------------------------------------


    POTLOK:  cpu time    0.2040: real time    0.2141
    SETDIJ:  cpu time    0.0080: real time    0.0061
     EDDAV:  cpu time    1.5800: real time    1.5820
       DOS:  cpu time    0.0000: real time    0.0007
    CHARGE:  cpu time    0.0600: real time    0.0601
    MIXING:  cpu time    0.0080: real time    0.0059
    --------------------------------------------
      LOOP:  cpu time    1.8600: real time    1.8689

 eigenvalue-minimisations  :   600
 total energy-change (2. order) : 0.1292105E+03  (-0.7445576E+02)
 number of electron     186.9999640 magnetization      41.1205683
 augmentation part      128.7900716 magnetization      27.0139745

 Broyden mixing:
  rms(total) = 0.35726E+01    rms(broyden)= 0.35695E+01
  rms(prec ) = 0.37541E+01
  weight for this iteration     100.00

 eigenvalues of (default mixing * dielectric matrix)
  average eigenvalue GAMMA=   0.9422
  0.9422

 Free energy of the ion-electron system (eV)
  ---------------------------------------------------
  alpha Z        PSCENC =        26.83546235
  Ewald energy   TEWEN  =     33692.75237248
  -Hartree energ DENC   =    -54765.83591083
  -exchange      EXHF   =         0.00000000
  -V(xc)+E(xc)   XCENC  =       853.16679415
  PAW double counting   =     20867.29707897   -22575.03787291
  entropy T*S    EENTRO =         0.00000000
  eigenvalues    EBANDS =     -1644.49142841
  atomic energy  EATOM  =     23645.90493918
  Solvation  Ediel_sol  =         0.00000000
  ---------------------------------------------------
  free energy    TOTEN  =       100.59143499 eV

  energy without entropy =      100.59143499  energy(sigma->0) =      100.59143499


--------------------------------------------------------------------------------------------------------




--------------------------------------- Iteration      1(   7)  ---------------------------------------


    POTLOK:  cpu time    0.2040: real time    0.2165
    SETDIJ:  cpu time    0.0080: real time    0.0059
     EDDAV:  cpu time    1.7440: real time    1.7457
       DOS:  cpu time    0.0000: real time    0.0005
    CHARGE:  cpu time    0.0600: real time    0.0591
    MIXING:  cpu time    0.0040: real time    0.0064
    --------------------------------------------
      LOOP:  cpu time    2.0200: real time    2.0341

 eigenvalue-minimisations  :   684
 total energy-change (2. order) :-0.8504320E+01  (-0.3143952E+02)
 number of electron     186.9999667 magnetization      36.6485619
 augmentation part      121.4779932 magnetization      20.3979353

 Broyden mixing:
  rms(total) = 0.15135E+01    rms(broyden)= 0.15122E+01
  rms(prec ) = 0.15486E+01
  weight for this iteration     100.00

 eigenvalues of (default mixing * dielectric matrix)
  average eigenvalue GAMMA=   0.8711
  1.0341  0.7081

 Free energy of the ion-electron system (eV)
  ---------------------------------------------------
  alpha Z        PSCENC =        26.83546235
  Ewald energy   TEWEN  =     33692.75237248
  -Hartree energ DENC   =    -55172.13150388
  -exchange      EXHF   =         0.00000000
  -V(xc)+E(xc)   XCENC  =       858.26314545
  PAW double counting   =     21499.54529887   -23351.69570810
  entropy T*S    EENTRO =         0.00000000
  eigenvalues    EBANDS =     -1107.38689107
  atomic energy  EATOM  =     23645.90493918
  Solvation  Ediel_sol  =         0.00000000
  ---------------------------------------------------
  free energy    TOTEN  =        92.08711527 eV

  energy without entropy =       92.08711527  energy(sigma->0) =       92.08711527


--------------------------------------------------------------------------------------------------------




--------------------------------------- Iteration      1(   8)  ---------------------------------------


    POTLOK:  cpu time    0.2080: real time    0.2210
    SETDIJ:  cpu time    0.0040: real time    0.0059
     EDDAV:  cpu time    1.8880: real time    1.8864
       DOS:  cpu time    0.0000: real time    0.0007
    CHARGE:  cpu time    0.0600: real time    0.0594
    MIXING:  cpu time    0.0040: real time    0.0064
    --------------------------------------------
      LOOP:  cpu time    2.1640: real time    2.1797

 eigenvalue-minimisations  :   756
 total energy-change (2. order) : 0.3880145E+01  (-0.4325996E+01)
 number of electron     186.9999664 magnetization      33.9183054
 augmentation part      119.7215556 magnetization      17.1894143

 Broyden mixing:
  rms(total) = 0.14076E+01    rms(broyden)= 0.14066E+01
  rms(prec ) = 0.14742E+01
  weight for this iteration     100.00

 eigenvalues of (default mixing * dielectric matrix)
  average eigenvalue GAMMA=   0.8048
  1.1635  0.6960  0.5548

 Free energy of the ion-electron system (eV)
  ---------------------------------------------------
  alpha Z        PSCENC =        26.83546235
  Ewald energy   TEWEN  =     33692.75237248
  -Hartree energ DENC   =    -55252.44280461
  -exchange      EXHF   =         0.00000000
  -V(xc)+E(xc)   XCENC  =       862.31605897
  PAW double counting   =     21857.84461273   -23720.64249575
  entropy T*S    EENTRO =         0.00000000
  eigenvalues    EBANDS =     -1016.60088539
  atomic energy  EATOM  =     23645.90493918
  Solvation  Ediel_sol  =         0.00000000
  ---------------------------------------------------
  free energy    TOTEN  =        95.96725997 eV

  energy without entropy =       95.96725997  energy(sigma->0) =       95.96725997


--------------------------------------------------------------------------------------------------------




--------------------------------------- Iteration      1(   9)  ---------------------------------------


    POTLOK:  cpu time    0.2080: real time    0.2140
    SETDIJ:  cpu time    0.0040: real time    0.0058
     EDDAV:  cpu time    1.7480: real time    1.7461
       DOS:  cpu time    0.0000: real time    0.0006
    CHARGE:  cpu time    0.0600: real time    0.0598
    MIXING:  cpu time    0.0080: real time    0.0068
    --------------------------------------------
      LOOP:  cpu time    2.0280: real time    2.0331

 eigenvalue-minimisations  :   684
 total energy-change (2. order) :-0.7475382E+01  (-0.1438737E+01)
 number of electron     186.9999668 magnetization      29.1275564
 augmentation part      120.0962027 magnetization      14.1599348

 Broyden mixing:
  rms(total) = 0.10533E+01    rms(broyden)= 0.10522E+01
  rms(prec ) = 0.10760E+01
  weight for this iteration     100.00

 eigenvalues of (default mixing * dielectric matrix)
  average eigenvalue GAMMA=   0.8321
  1.4295  0.7579  0.7579  0.3834

 Free energy of the ion-electron system (eV)
  ---------------------------------------------------
  alpha Z        PSCENC =        26.83546235
  Ewald energy   TEWEN  =     33692.75237248
  -Hartree energ DENC   =    -55242.02472817
  -exchange      EXHF   =         0.00000000
  -V(xc)+E(xc)   XCENC  =       855.70355029
  PAW double counting   =     21955.56084765   -23810.84989205
  entropy T*S    EENTRO =         0.00000000
  eigenvalues    EBANDS =     -1035.39067347
  atomic energy  EATOM  =     23645.90493918
  Solvation  Ediel_sol  =         0.00000000
  ---------------------------------------------------
  free energy    TOTEN  =        88.49187827 eV

  energy without entropy =       88.49187827  energy(sigma->0) =       88.49187827


--------------------------------------------------------------------------------------------------------




--------------------------------------- Iteration      1(  10)  ---------------------------------------


    POTLOK:  cpu time    0.2040: real time    0.2160
    SETDIJ:  cpu time    0.0040: real time    0.0058
     EDDAV:  cpu time    2.0080: real time    2.0086
       DOS:  cpu time    0.0000: real time    0.0006
    CHARGE:  cpu time    0.0600: real time    0.0596
    MIXING:  cpu time    0.0080: real time    0.0072
    --------------------------------------------
      LOOP:  cpu time    2.2840: real time    2.2978

 eigenvalue-minimisations  :   820
 total energy-change (2. order) :-0.2185923E+02  (-0.1079420E+01)
 number of electron     186.9999671 magnetization      23.9019594
 augmentation part      120.3660097 magnetization       9.5754198

 Broyden mixing:
  rms(total) = 0.80190E+00    rms(broyden)= 0.80150E+00
  rms(prec ) = 0.81850E+00
  weight for this iteration     100.00

 eigenvalues of (default mixing * dielectric matrix)
  average eigenvalue GAMMA=   0.9464
  1.5349  1.5349  0.6244  0.6244  0.4133

 Free energy of the ion-electron system (eV)
  ---------------------------------------------------
  alpha Z        PSCENC =        26.83546235
  Ewald energy   TEWEN  =     33692.75237248
  -Hartree energ DENC   =    -55252.26446996
  -exchange      EXHF   =         0.00000000
  -V(xc)+E(xc)   XCENC  =       838.10239026
  PAW double counting   =     22097.27630529   -23941.67395218
  entropy T*S    EENTRO =         0.00000000
  eigenvalues    EBANDS =     -1040.30040123
  atomic energy  EATOM  =     23645.90493918
  Solvation  Ediel_sol  =         0.00000000
  ---------------------------------------------------
  free energy    TOTEN  =        66.63264620 eV

  energy without entropy =       66.63264620  energy(sigma->0) =       66.63264620


--------------------------------------------------------------------------------------------------------




--------------------------------------- Iteration      1(  11)  ---------------------------------------


    POTLOK:  cpu time    0.2080: real time    0.2229
    SETDIJ:  cpu time    0.0040: real time    0.0059
     EDDAV:  cpu time    1.8040: real time    1.8054
       DOS:  cpu time    0.0040: real time    0.0007
    CHARGE:  cpu time    0.0600: real time    0.0598
    MIXING:  cpu time    0.0040: real time    0.0073
    --------------------------------------------
      LOOP:  cpu time    2.0840: real time    2.1019

 eigenvalue-minimisations  :   716
 total energy-change (2. order) :-0.2805556E+02  (-0.1924740E+01)
 number of electron     186.9999666 magnetization      20.5949430
 augmentation part      120.5893325 magnetization       7.6683616

 Broyden mixing:
  rms(total) = 0.59772E+00    rms(broyden)= 0.59750E+00
  rms(prec ) = 0.60854E+00
  weight for this iteration     100.00

 eigenvalues of (default mixing * dielectric matrix)
  average eigenvalue GAMMA=   1.0076
  2.0606  1.8079  0.6329  0.6329  0.4932  0.4178

 Free energy of the ion-electron system (eV)
  ---------------------------------------------------
  alpha Z        PSCENC =        26.83546235
  Ewald energy   TEWEN  =     33692.75237248
  -Hartree energ DENC   =    -55246.35457678
  -exchange      EXHF   =         0.00000000
  -V(xc)+E(xc)   XCENC  =       816.23968006
  PAW double counting   =     22151.77995563   -23981.32804474
  entropy T*S    EENTRO =         0.00000000
  eigenvalues    EBANDS =     -1067.25270671
  atomic energy  EATOM  =     23645.90493918
  Solvation  Ediel_sol  =         0.00000000
  ---------------------------------------------------
  free energy    TOTEN  =        38.57708146 eV

  energy without entropy =       38.57708146  energy(sigma->0) =       38.57708146


--------------------------------------------------------------------------------------------------------




--------------------------------------- Iteration      1(  12)  ---------------------------------------


    POTLOK:  cpu time    0.2080: real time    0.2194
    SETDIJ:  cpu time    0.0040: real time    0.0058
     EDDAV:  cpu time    1.7080: real time    1.7093
       DOS:  cpu time    0.0040: real time    0.0007
    CHARGE:  cpu time    0.0600: real time    0.0599
    MIXING:  cpu time    0.0040: real time    0.0076
    --------------------------------------------
      LOOP:  cpu time    1.9880: real time    2.0027

 eigenvalue-minimisations  :   664
 total energy-change (2. order) :-0.2354701E+02  (-0.1484123E+01)
 number of electron     186.9999667 magnetization      17.6292980
 augmentation part      120.5846080 magnetization       7.7247734

 Broyden mixing:
  rms(total) = 0.47477E+00    rms(broyden)= 0.47410E+00
  rms(prec ) = 0.48992E+00
  weight for this iteration     100.00

 eigenvalues of (default mixing * dielectric matrix)
  average eigenvalue GAMMA=   0.9966
  2.5026  1.6753  0.6679  0.6679  0.6334  0.4145  0.4145

 Free energy of the ion-electron system (eV)
  ---------------------------------------------------
  alpha Z        PSCENC =        26.83546235
  Ewald energy   TEWEN  =     33692.75237248
  -Hartree energ DENC   =    -55235.47390311
  -exchange      EXHF   =         0.00000000
  -V(xc)+E(xc)   XCENC  =       798.08858738
  PAW double counting   =     22111.63661541   -23933.84681893
  entropy T*S    EENTRO =         0.00000000
  eigenvalues    EBANDS =     -1090.86718044
  atomic energy  EATOM  =     23645.90493918
  Solvation  Ediel_sol  =         0.00000000
  ---------------------------------------------------
  free energy    TOTEN  =        15.03007433 eV

  energy without entropy =       15.03007433  energy(sigma->0) =       15.03007433


--------------------------------------------------------------------------------------------------------




--------------------------------------- Iteration      1(  13)  ---------------------------------------


    POTLOK:  cpu time    0.2080: real time    0.2199
    SETDIJ:  cpu time    0.0040: real time    0.0058
     EDDAV:  cpu time    1.7720: real time    1.7711
       DOS:  cpu time    0.0000: real time    0.0006
    CHARGE:  cpu time    0.0600: real time    0.0591
    MIXING:  cpu time    0.0080: real time    0.0081
    --------------------------------------------
      LOOP:  cpu time    2.0520: real time    2.0646

 eigenvalue-minimisations  :   696
 total energy-change (2. order) :-0.1286054E+02  (-0.8700927E+00)
 number of electron     186.9999668 magnetization      13.8359426
 augmentation part      120.2102758 magnetization       6.4440509

 Broyden mixing:
  rms(total) = 0.43338E+00    rms(broyden)= 0.43255E+00
  rms(prec ) = 0.44858E+00
  weight for this iteration     100.00

 eigenvalues of (default mixing * dielectric matrix)
  average eigenvalue GAMMA=   1.0048
  2.9607  1.5464  0.7717  0.7717  0.7535  0.4327  0.4327  0.3686

 Free energy of the ion-electron system (eV)
  ---------------------------------------------------
  alpha Z        PSCENC =        26.83546235
  Ewald energy   TEWEN  =     33692.75237248
  -Hartree energ DENC   =    -55249.33352523
  -exchange      EXHF   =         0.00000000
  -V(xc)+E(xc)   XCENC  =       789.23727163
  PAW double counting   =     22122.99677511   -23945.69351123
  entropy T*S    EENTRO =         0.00000000
  eigenvalues    EBANDS =     -1080.53024843
  atomic energy  EATOM  =     23645.90493918
  Solvation  Ediel_sol  =         0.00000000
  ---------------------------------------------------
  free energy    TOTEN  =         2.16953587 eV

  energy without entropy =        2.16953587  energy(sigma->0) =        2.16953587


--------------------------------------------------------------------------------------------------------




--------------------------------------- Iteration      1(  14)  ---------------------------------------


    POTLOK:  cpu time    0.2040: real time    0.2152
    SETDIJ:  cpu time    0.0080: real time    0.0058
     EDDAV:  cpu time    1.7400: real time    1.7399
       DOS:  cpu time    0.0000: real time    0.0007
    CHARGE:  cpu time    0.0560: real time    0.0592
    MIXING:  cpu time    0.0120: real time    0.0082
    --------------------------------------------
      LOOP:  cpu time    2.0200: real time    2.0290

 eigenvalue-minimisations  :   680
 total energy-change (2. order) :-0.1137504E+02  (-0.7809121E+00)
 number of electron     186.9999670 magnetization      10.0897850
 augmentation part      119.9937690 magnetization       5.1540956

 Broyden mixing:
  rms(total) = 0.37949E+00    rms(broyden)= 0.37863E+00
  rms(prec ) = 0.39602E+00
  weight for this iteration     100.00

 eigenvalues of (default mixing * dielectric matrix)
  average eigenvalue GAMMA=   1.0710
  3.7945  1.2745  1.2745  0.7761  0.7761  0.4132  0.4132  0.4583  0.4583

 Free energy of the ion-electron system (eV)
  ---------------------------------------------------
  alpha Z        PSCENC =        26.83546235
  Ewald energy   TEWEN  =     33692.75237248
  -Hartree energ DENC   =    -55264.64244148
  -exchange      EXHF   =         0.00000000
  -V(xc)+E(xc)   XCENC  =       781.24539430
  PAW double counting   =     22142.72136312   -23966.03229674
  entropy T*S    EENTRO =         0.00000000
  eigenvalues    EBANDS =     -1067.99029467
  atomic energy  EATOM  =     23645.90493918
  Solvation  Ediel_sol  =         0.00000000
  ---------------------------------------------------
  free energy    TOTEN  =        -9.20550145 eV

  energy without entropy =       -9.20550145  energy(sigma->0) =       -9.20550145


--------------------------------------------------------------------------------------------------------




--------------------------------------- Iteration      1(  15)  ---------------------------------------


    POTLOK:  cpu time    0.2040: real time    0.2214
    SETDIJ:  cpu time    0.0040: real time    0.0058
     EDDAV:  cpu time    1.8800: real time    1.8789
       DOS:  cpu time    0.0000: real time    0.0007
    CHARGE:  cpu time    0.0600: real time    0.0587
    MIXING:  cpu time    0.0080: real time    0.0088
    --------------------------------------------
      LOOP:  cpu time    2.1560: real time    2.1742

 eigenvalue-minimisations  :   752
 total energy-change (2. order) :-0.1054515E+02  (-0.6579460E+00)
 number of electron     186.9999670 magnetization       7.2779043
 augmentation part      119.7574982 magnetization       3.1253080

 Broyden mixing:
  rms(total) = 0.27209E+00    rms(broyden)= 0.27188E+00
  rms(prec ) = 0.28597E+00
  weight for this iteration     100.00

 eigenvalues of (default mixing * dielectric matrix)
  average eigenvalue GAMMA=   1.2102
  5.1810  1.9671  0.9153  0.7051  0.7051  0.7259  0.5536  0.5536  0.3978  0.3978

 Free energy of the ion-electron system (eV)
  ---------------------------------------------------
  alpha Z        PSCENC =        26.83546235
  Ewald energy   TEWEN  =     33692.75237248
  -Hartree energ DENC   =    -55277.03029755
  -exchange      EXHF   =         0.00000000
  -V(xc)+E(xc)   XCENC  =       773.38402468
  PAW double counting   =     22148.70315294   -23972.02943351
  entropy T*S    EENTRO =         0.00000000
  eigenvalues    EBANDS =     -1058.27086862
  atomic energy  EATOM  =     23645.90493918
  Solvation  Ediel_sol  =         0.00000000
  ---------------------------------------------------
  free energy    TOTEN  =       -19.75064805 eV

  energy without entropy =      -19.75064805  energy(sigma->0) =      -19.75064805


--------------------------------------------------------------------------------------------------------




--------------------------------------- Iteration      1(  16)  ---------------------------------------


    POTLOK:  cpu time    0.2040: real time    0.2297
    SETDIJ:  cpu time    0.0080: real time    0.0059
     EDDAV:  cpu time    1.8160: real time    1.8158
       DOS:  cpu time    0.0000: real time    0.0005
    CHARGE:  cpu time    0.0600: real time    0.0600
    MIXING:  cpu time    0.0080: real time    0.0092
    --------------------------------------------
      LOOP:  cpu time    2.0960: real time    2.1210

 eigenvalue-minimisations  :   720
 total energy-change (2. order) :-0.1270264E+02  (-0.8710311E+00)
 number of electron     186.9999668 magnetization       5.9668309
 augmentation part      119.8024090 magnetization       4.2492304

 Broyden mixing:
  rms(total) = 0.25533E+00    rms(broyden)= 0.25386E+00
  rms(prec ) = 0.26930E+00
  weight for this iteration     100.00

 eigenvalues of (default mixing * dielectric matrix)
  average eigenvalue GAMMA=   1.1769
  5.5138  1.9828  1.0919  0.7488  0.7488  0.6253  0.6253  0.4604  0.4604  0.3848
  0.3038

 Free energy of the ion-electron system (eV)
  ---------------------------------------------------
  alpha Z        PSCENC =        26.83546235
  Ewald energy   TEWEN  =     33692.75237248
  -Hartree energ DENC   =    -55265.32201758
  -exchange      EXHF   =         0.00000000
  -V(xc)+E(xc)   XCENC  =       763.35790887
  PAW double counting   =     22079.74222925   -23901.08811788
  entropy T*S    EENTRO =         0.00000000
  eigenvalues    EBANDS =     -1074.63606795
  atomic energy  EATOM  =     23645.90493918
  Solvation  Ediel_sol  =         0.00000000
  ---------------------------------------------------
  free energy    TOTEN  =       -32.45329128 eV

  energy without entropy =      -32.45329128  energy(sigma->0) =      -32.45329128


--------------------------------------------------------------------------------------------------------




--------------------------------------- Iteration      1(  17)  ---------------------------------------


    POTLOK:  cpu time    0.2080: real time    0.2190
    SETDIJ:  cpu time    0.0040: real time    0.0058
     EDDAV:  cpu time    1.8160: real time    1.8170
       DOS:  cpu time    0.0000: real time    0.0006
    CHARGE:  cpu time    0.0600: real time    0.0596
    MIXING:  cpu time    0.0120: real time    0.0096
    --------------------------------------------
      LOOP:  cpu time    2.1000: real time    2.1116

 eigenvalue-minimisations  :   720
 total energy-change (2. order) :-0.2904132E+01  (-0.1382871E+00)
 number of electron     186.9999668 magnetization       4.7451697
 augmentation part      119.7751991 magnetization       3.3593778

 Broyden mixing:
  rms(total) = 0.18055E+00    rms(broyden)= 0.18042E+00
  rms(prec ) = 0.19434E+00
  weight for this iteration     100.00

 eigenvalues of (default mixing * dielectric matrix)
  average eigenvalue GAMMA=   1.2528
  6.1711  2.2798  0.9596  0.9596  0.8681  0.8681  0.5170  0.5170  0.5773  0.5545
  0.3810  0.3810

 Free energy of the ion-electron system (eV)
  ---------------------------------------------------
  alpha Z        PSCENC =        26.83546235
  Ewald energy   TEWEN  =     33692.75237248
  -Hartree energ DENC   =    -55261.17335473
  -exchange      EXHF   =         0.00000000
  -V(xc)+E(xc)   XCENC  =       761.16105765
  PAW double counting   =     22062.07884533   -23883.44601846
  entropy T*S    EENTRO =         0.00000000
  eigenvalues    EBANDS =     -1079.47072666
  atomic energy  EATOM  =     23645.90493918
  Solvation  Ediel_sol  =         0.00000000
  ---------------------------------------------------
  free energy    TOTEN  =       -35.35742286 eV

  energy without entropy =      -35.35742286  energy(sigma->0) =      -35.35742286


--------------------------------------------------------------------------------------------------------




--------------------------------------- Iteration      1(  18)  ---------------------------------------


    POTLOK:  cpu time    0.2040: real time    0.2133
    SETDIJ:  cpu time    0.0040: real time    0.0057
     EDDAV:  cpu time    1.8800: real time    1.8787
       DOS:  cpu time    0.0000: real time    0.0006
    CHARGE:  cpu time    0.0600: real time    0.0599
    MIXING:  cpu time    0.0120: real time    0.0098
    --------------------------------------------
      LOOP:  cpu time    2.1600: real time    2.1679

 eigenvalue-minimisations  :   752
 total energy-change (2. order) :-0.3162772E+01  (-0.1080824E+00)
 number of electron     186.9999668 magnetization       3.6368519
 augmentation part      119.8630879 magnetization       2.5119503

 Broyden mixing:
  rms(total) = 0.13934E+00    rms(broyden)= 0.13931E+00
  rms(prec ) = 0.15140E+00
  weight for this iteration     100.00

 eigenvalues of (default mixing * dielectric matrix)
  average eigenvalue GAMMA=   1.2821
  6.7266  2.3802  1.0969  1.0969  0.9430  0.9430  0.6150  0.6150  0.5071  0.5071
  0.4887  0.3741  0.3741

 Free energy of the ion-electron system (eV)
  ---------------------------------------------------
  alpha Z        PSCENC =        26.83546235
  Ewald energy   TEWEN  =     33692.75237248
  -Hartree energ DENC   =    -55245.71038639
  -exchange      EXHF   =         0.00000000
  -V(xc)+E(xc)   XCENC  =       758.29188581
  PAW double counting   =     22017.77473941   -23838.49851673
  entropy T*S    EENTRO =         0.00000000
  eigenvalues    EBANDS =     -1095.87069084
  atomic energy  EATOM  =     23645.90493918
  Solvation  Ediel_sol  =         0.00000000
  ---------------------------------------------------
  free energy    TOTEN  =       -38.52019472 eV

  energy without entropy =      -38.52019472  energy(sigma->0) =      -38.52019472


--------------------------------------------------------------------------------------------------------




--------------------------------------- Iteration      1(  19)  ---------------------------------------


    POTLOK:  cpu time    0.2040: real time    0.2273
    SETDIJ:  cpu time    0.0040: real time    0.0058
     EDDAV:  cpu time    1.9040: real time    1.9042
       DOS:  cpu time    0.0000: real time    0.0006
    CHARGE:  cpu time    0.0600: real time    0.0600
    MIXING:  cpu time    0.0120: real time    0.0102
    --------------------------------------------
      LOOP:  cpu time    2.1840: real time    2.2081

 eigenvalue-minimisations  :   768
 total energy-change (2. order) :-0.2516195E+01  (-0.6113270E-01)
 number of electron     186.9999667 magnetization       2.6509002
 augmentation part      119.9171141 magnetization       1.6820000

 Broyden mixing:
  rms(total) = 0.87448E-01    rms(broyden)= 0.87398E-01
  rms(prec ) = 0.92319E-01
  weight for this iteration     100.00

 eigenvalues of (default mixing * dielectric matrix)
  average eigenvalue GAMMA=   1.3114
  7.1269  2.0524  2.0524  1.0248  1.0248  0.8000  0.8000  0.6756  0.5235  0.5235
  0.5700  0.4376  0.3739  0.3739

 Free energy of the ion-electron system (eV)
  ---------------------------------------------------
  alpha Z        PSCENC =        26.83546235
  Ewald energy   TEWEN  =     33692.75237248
  -Hartree energ DENC   =    -55228.08563621
  -exchange      EXHF   =         0.00000000
  -V(xc)+E(xc)   XCENC  =       755.84138785
  PAW double counting   =     21971.38218409   -23792.42721333
  entropy T*S    EENTRO =         0.00000000
  eigenvalues    EBANDS =     -1113.23988588
  atomic energy  EATOM  =     23645.90493918
  Solvation  Ediel_sol  =         0.00000000
  ---------------------------------------------------
  free energy    TOTEN  =       -41.03638946 eV

  energy without entropy =      -41.03638946  energy(sigma->0) =      -41.03638946


--------------------------------------------------------------------------------------------------------




--------------------------------------- Iteration      1(  20)  ---------------------------------------


    POTLOK:  cpu time    0.2040: real time    0.2187
    SETDIJ:  cpu time    0.0080: real time    0.0058
     EDDAV:  cpu time    1.8000: real time    1.7997
       DOS:  cpu time    0.0000: real time    0.0006
    CHARGE:  cpu time    0.0600: real time    0.0598
    MIXING:  cpu time    0.0080: real time    0.0104
    --------------------------------------------
      LOOP:  cpu time    2.0800: real time    2.0950

 eigenvalue-minimisations  :   712
 total energy-change (2. order) :-0.1392398E+01  (-0.2370476E-01)
 number of electron     186.9999668 magnetization       1.6021466
 augmentation part      119.8862727 magnetization       0.6691555

 Broyden mixing:
  rms(total) = 0.54684E-01    rms(broyden)= 0.54662E-01
  rms(prec ) = 0.58752E-01
  weight for this iteration     100.00

 eigenvalues of (default mixing * dielectric matrix)
  average eigenvalue GAMMA=   1.3739
  7.9793  2.6466  1.8620  1.1362  1.1362  0.8504  0.8504  0.7408  0.6427  0.5208
  0.5208  0.5564  0.4193  0.3735  0.3735

 Free energy of the ion-electron system (eV)
  ---------------------------------------------------
  alpha Z        PSCENC =        26.83546235
  Ewald energy   TEWEN  =     33692.75237248
  -Hartree energ DENC   =    -55219.56922912
  -exchange      EXHF   =         0.00000000
  -V(xc)+E(xc)   XCENC  =       754.52585295
  PAW double counting   =     21958.95290457   -23781.69967387
  entropy T*S    EENTRO =         0.00000000
  eigenvalues    EBANDS =     -1120.13141640
  atomic energy  EATOM  =     23645.90493918
  Solvation  Ediel_sol  =         0.00000000
  ---------------------------------------------------
  free energy    TOTEN  =       -42.42878786 eV

  energy without entropy =      -42.42878786  energy(sigma->0) =      -42.42878786


--------------------------------------------------------------------------------------------------------




--------------------------------------- Iteration      1(  21)  ---------------------------------------


    POTLOK:  cpu time    0.2080: real time    0.2322
    SETDIJ:  cpu time    0.0040: real time    0.0058
     EDDAV:  cpu time    1.8640: real time    1.8647
       DOS:  cpu time    0.0000: real time    0.0006
    CHARGE:  cpu time    0.0600: real time    0.0598
    MIXING:  cpu time    0.0120: real time    0.0110
    --------------------------------------------
      LOOP:  cpu time    2.1480: real time    2.1741

 eigenvalue-minimisations  :   744
 total energy-change (2. order) :-0.1175251E+01  (-0.1364586E-01)
 number of electron     186.9999668 magnetization       1.5089044
 augmentation part      119.9201454 magnetization       0.6636310

 Broyden mixing:
  rms(total) = 0.40997E-01    rms(broyden)= 0.40975E-01
  rms(prec ) = 0.44806E-01
  weight for this iteration     100.00

 eigenvalues of (default mixing * dielectric matrix)
  average eigenvalue GAMMA=   1.3635
  7.9664  2.4303  2.4303  1.1601  1.1601  0.9234  0.9234  0.8792  0.6336  0.6336
  0.5147  0.5147  0.4641  0.4306  0.3754  0.3754

 Free energy of the ion-electron system (eV)
  ---------------------------------------------------
  alpha Z        PSCENC =        26.83546235
  Ewald energy   TEWEN  =     33692.75237248
  -Hartree energ DENC   =    -55210.87713704
  -exchange      EXHF   =         0.00000000
  -V(xc)+E(xc)   XCENC  =       753.26990076
  PAW double counting   =     21946.37753299   -23769.43495595
  entropy T*S    EENTRO =         0.00000000
  eigenvalues    EBANDS =     -1128.43215410
  atomic energy  EATOM  =     23645.90493918
  Solvation  Ediel_sol  =         0.00000000
  ---------------------------------------------------
  free energy    TOTEN  =       -43.60403933 eV

  energy without entropy =      -43.60403933  energy(sigma->0) =      -43.60403933


--------------------------------------------------------------------------------------------------------




--------------------------------------- Iteration      1(  22)  ---------------------------------------


    POTLOK:  cpu time    0.2040: real time    0.2251
    SETDIJ:  cpu time    0.0080: real time    0.0058
     EDDAV:  cpu time    1.7720: real time    1.7719
       DOS:  cpu time    0.0000: real time    0.0006
    CHARGE:  cpu time    0.0600: real time    0.0596
    MIXING:  cpu time    0.0120: real time    0.0115
    --------------------------------------------
      LOOP:  cpu time    2.0560: real time    2.0746

 eigenvalue-minimisations  :   696
 total energy-change (2. order) :-0.4777681E+00  (-0.2296737E-02)
 number of electron     186.9999668 magnetization       1.3863934
 augmentation part      119.8988388 magnetization       0.5299075

 Broyden mixing:
  rms(total) = 0.22609E-01    rms(broyden)= 0.22599E-01
  rms(prec ) = 0.26379E-01
  weight for this iteration     100.00

 eigenvalues of (default mixing * dielectric matrix)
  average eigenvalue GAMMA=   1.4100
  8.1194  3.4495  1.9394  1.9394  1.0818  1.0818  0.8656  0.8656  0.6999  0.6458
  0.6458  0.5127  0.5127  0.3738  0.3738  0.4313  0.4313

 Free energy of the ion-electron system (eV)
  ---------------------------------------------------
  alpha Z        PSCENC =        26.83546235
  Ewald energy   TEWEN  =     33692.75237248
  -Hartree energ DENC   =    -55208.40512849
  -exchange      EXHF   =         0.00000000
  -V(xc)+E(xc)   XCENC  =       752.81442455
  PAW double counting   =     21951.43780466   -23774.91532252
  entropy T*S    EENTRO =         0.00000000
  eigenvalues    EBANDS =     -1130.50635964
  atomic energy  EATOM  =     23645.90493918
  Solvation  Ediel_sol  =         0.00000000
  ---------------------------------------------------
  free energy    TOTEN  =       -44.08180744 eV

  energy without entropy =      -44.08180744  energy(sigma->0) =      -44.08180744


--------------------------------------------------------------------------------------------------------




--------------------------------------- Iteration      1(  23)  ---------------------------------------


    POTLOK:  cpu time    0.2040: real time    0.2203
    SETDIJ:  cpu time    0.0040: real time    0.0057
     EDDAV:  cpu time    1.8360: real time    1.8328
       DOS:  cpu time    0.0000: real time    0.0007
    CHARGE:  cpu time    0.0600: real time    0.0596
    MIXING:  cpu time    0.0120: real time    0.0120
    --------------------------------------------
      LOOP:  cpu time    2.1160: real time    2.1311

 eigenvalue-minimisations  :   728
 total energy-change (2. order) :-0.5004712E+00  (-0.1263751E-02)
 number of electron     186.9999668 magnetization       1.1718847
 augmentation part      119.8951806 magnetization       0.3016649

 Broyden mixing:
  rms(total) = 0.13845E-01    rms(broyden)= 0.13838E-01
  rms(prec ) = 0.17023E-01
  weight for this iteration     100.00

 eigenvalues of (default mixing * dielectric matrix)
  average eigenvalue GAMMA=   1.4163
  8.4566  3.6829  1.9970  1.9970  1.0876  1.0876  0.9727  0.8584  0.8584  0.6434
  0.6434  0.5166  0.5166  0.5647  0.3740  0.3740  0.4315  0.4315

 Free energy of the ion-electron system (eV)
  ---------------------------------------------------
  alpha Z        PSCENC =        26.83546235
  Ewald energy   TEWEN  =     33692.75237248
  -Hartree energ DENC   =    -55202.70509989
  -exchange      EXHF   =         0.00000000
  -V(xc)+E(xc)   XCENC  =       752.28265849
  PAW double counting   =     21952.00688033   -23775.62777694
  entropy T*S    EENTRO =         0.00000000
  eigenvalues    EBANDS =     -1136.03171462
  atomic energy  EATOM  =     23645.90493918
  Solvation  Ediel_sol  =         0.00000000
  ---------------------------------------------------
  free energy    TOTEN  =       -44.58227861 eV

  energy without entropy =      -44.58227861  energy(sigma->0) =      -44.58227861


--------------------------------------------------------------------------------------------------------




--------------------------------------- Iteration      1(  24)  ---------------------------------------


    POTLOK:  cpu time    0.2040: real time    0.2207
    SETDIJ:  cpu time    0.0040: real time    0.0058
     EDDAV:  cpu time    1.8640: real time    1.8606
       DOS:  cpu time    0.0000: real time    0.0006
    CHARGE:  cpu time    0.0600: real time    0.0594
    MIXING:  cpu time    0.0120: real time    0.0125
    --------------------------------------------
      LOOP:  cpu time    2.1440: real time    2.1597

 eigenvalue-minimisations  :   744
 total energy-change (2. order) :-0.1454962E+00  (-0.5938626E-03)
 number of electron     186.9999668 magnetization       1.1092685
 augmentation part      119.9147978 magnetization       0.2535944

 Broyden mixing:
  rms(total) = 0.94842E-02    rms(broyden)= 0.94791E-02
  rms(prec ) = 0.11676E-01
  weight for this iteration     100.00

 eigenvalues of (default mixing * dielectric matrix)
  average eigenvalue GAMMA=   1.4060
  8.5212  3.7686  2.0555  2.0555  1.3976  1.0763  1.0763  0.8458  0.8458  0.7035
  0.6351  0.6351  0.5113  0.5113  0.3743  0.3743  0.4472  0.4395  0.4395

 Free energy of the ion-electron system (eV)
  ---------------------------------------------------
  alpha Z        PSCENC =        26.83546235
  Ewald energy   TEWEN  =     33692.75237248
  -Hartree energ DENC   =    -55198.93944172
  -exchange      EXHF   =         0.00000000
  -V(xc)+E(xc)   XCENC  =       752.08527930
  PAW double counting   =     21949.59008075   -23773.07951678
  entropy T*S    EENTRO =         0.00000000
  eigenvalues    EBANDS =     -1139.87695038
  atomic energy  EATOM  =     23645.90493918
  Solvation  Ediel_sol  =         0.00000000
  ---------------------------------------------------
  free energy    TOTEN  =       -44.72777482 eV

  energy without entropy =      -44.72777482  energy(sigma->0) =      -44.72777482


--------------------------------------------------------------------------------------------------------




--------------------------------------- Iteration      1(  25)  ---------------------------------------


    POTLOK:  cpu time    0.2040: real time    0.2232
    SETDIJ:  cpu time    0.0080: real time    0.0058
     EDDAV:  cpu time    1.7960: real time    1.7968
       DOS:  cpu time    0.0000: real time    0.0006
    CHARGE:  cpu time    0.0600: real time    0.0599
    MIXING:  cpu time    0.0120: real time    0.0129
    --------------------------------------------
      LOOP:  cpu time    2.0800: real time    2.0992

 eigenvalue-minimisations  :   712
 total energy-change (2. order) :-0.6551142E-01  (-0.1485903E-03)
 number of electron     186.9999668 magnetization       1.0953412
 augmentation part      119.9182794 magnetization       0.2379228

 Broyden mixing:
  rms(total) = 0.53468E-02    rms(broyden)= 0.53442E-02
  rms(prec ) = 0.72055E-02
  weight for this iteration     100.00

 eigenvalues of (default mixing * dielectric matrix)
  average eigenvalue GAMMA=   1.4176
  8.5350  3.9501  2.4651  1.7885  1.7885  1.0957  1.0957  0.9506  0.8485  0.8485
  0.6449  0.6449  0.6022  0.5137  0.5137  0.3743  0.3743  0.4528  0.4320  0.4320

 Free energy of the ion-electron system (eV)
  ---------------------------------------------------
  alpha Z        PSCENC =        26.83546235
  Ewald energy   TEWEN  =     33692.75237248
  -Hartree energ DENC   =    -55196.80115655
  -exchange      EXHF   =         0.00000000
  -V(xc)+E(xc)   XCENC  =       752.00651562
  PAW double counting   =     21951.94280902   -23775.40231906
  entropy T*S    EENTRO =         0.00000000
  eigenvalues    EBANDS =     -1142.03190927
  atomic energy  EATOM  =     23645.90493918
  Solvation  Ediel_sol  =         0.00000000
  ---------------------------------------------------
  free energy    TOTEN  =       -44.79328623 eV

  energy without entropy =      -44.79328623  energy(sigma->0) =      -44.79328623


--------------------------------------------------------------------------------------------------------




--------------------------------------- Iteration      1(  26)  ---------------------------------------


    POTLOK:  cpu time    0.2040: real time    0.2305
    SETDIJ:  cpu time    0.0080: real time    0.0058
     EDDAV:  cpu time    1.8440: real time    1.8451
       DOS:  cpu time    0.0000: real time    0.0007
    CHARGE:  cpu time    0.0600: real time    0.0599
    MIXING:  cpu time    0.0160: real time    0.0136
    --------------------------------------------
      LOOP:  cpu time    2.1320: real time    2.1555

 eigenvalue-minimisations  :   736
 total energy-change (2. order) :-0.2991726E-01  (-0.1013866E-03)
 number of electron     186.9999668 magnetization       1.0629993
 augmentation part      119.9135664 magnetization       0.2007735

 Broyden mixing:
  rms(total) = 0.34143E-02    rms(broyden)= 0.34121E-02
  rms(prec ) = 0.48208E-02
  weight for this iteration     100.00

 eigenvalues of (default mixing * dielectric matrix)
  average eigenvalue GAMMA=   1.4167
  8.5676  4.1647  2.5146  2.1771  1.5222  1.2903  1.0797  1.0797  0.8450  0.8450
  0.7137  0.6426  0.6426  0.5135  0.5135  0.5829  0.3744  0.3744  0.4403  0.4403
  0.4257

 Free energy of the ion-electron system (eV)
  ---------------------------------------------------
  alpha Z        PSCENC =        26.83546235
  Ewald energy   TEWEN  =     33692.75237248
  -Hartree energ DENC   =    -55195.13402060
  -exchange      EXHF   =         0.00000000
  -V(xc)+E(xc)   XCENC  =       751.97572671
  PAW double counting   =     21955.13483060   -23778.61264812
  entropy T*S    EENTRO =         0.00000000
  eigenvalues    EBANDS =     -1143.67986610
  atomic energy  EATOM  =     23645.90493918
  Solvation  Ediel_sol  =         0.00000000
  ---------------------------------------------------
  free energy    TOTEN  =       -44.82320349 eV

  energy without entropy =      -44.82320349  energy(sigma->0) =      -44.82320349


--------------------------------------------------------------------------------------------------------




--------------------------------------- Iteration      1(  27)  ---------------------------------------


    POTLOK:  cpu time    0.2040: real time    0.2225
    SETDIJ:  cpu time    0.0040: real time    0.0057
     EDDAV:  cpu time    1.9080: real time    1.9085
       DOS:  cpu time    0.0040: real time    0.0006
    CHARGE:  cpu time    0.0600: real time    0.0600
    MIXING:  cpu time    0.0120: real time    0.0140
    --------------------------------------------
      LOOP:  cpu time    2.1920: real time    2.2112

 eigenvalue-minimisations  :   768
 total energy-change (2. order) :-0.7258915E-02  (-0.5199182E-04)
 number of electron     186.9999668 magnetization       1.0349332
 augmentation part      119.9146082 magnetization       0.1740120

 Broyden mixing:
  rms(total) = 0.24525E-02    rms(broyden)= 0.24516E-02
  rms(prec ) = 0.35765E-02
  weight for this iteration     100.00

 eigenvalues of (default mixing * dielectric matrix)
  average eigenvalue GAMMA=   1.4163
  8.5736  4.2566  2.8144  1.9145  1.9145  1.0830  1.0830  1.1713  1.1713  0.8327
  0.8327  0.6422  0.6422  0.6304  0.5135  0.5135  0.5129  0.3743  0.3743  0.4364
  0.4364  0.4354

 Free energy of the ion-electron system (eV)
  ---------------------------------------------------
  alpha Z        PSCENC =        26.83546235
  Ewald energy   TEWEN  =     33692.75237248
  -Hartree energ DENC   =    -55193.80573364
  -exchange      EXHF   =         0.00000000
  -V(xc)+E(xc)   XCENC  =       751.95913891
  PAW double counting   =     21955.65048391   -23779.11397231
  entropy T*S    EENTRO =         0.00000000
  eigenvalues    EBANDS =     -1145.01315331
  atomic energy  EATOM  =     23645.90493918
  Solvation  Ediel_sol  =         0.00000000
  ---------------------------------------------------
  free energy    TOTEN  =       -44.83046241 eV

  energy without entropy =      -44.83046241  energy(sigma->0) =      -44.83046241


--------------------------------------------------------------------------------------------------------




--------------------------------------- Iteration      1(  28)  ---------------------------------------


    POTLOK:  cpu time    0.2040: real time    0.2311
    SETDIJ:  cpu time    0.0080: real time    0.0058
     EDDAV:  cpu time    1.8600: real time    1.8627
       DOS:  cpu time    0.0040: real time    0.0006
    CHARGE:  cpu time    0.0600: real time    0.0600
    MIXING:  cpu time    0.0120: real time    0.0146
    --------------------------------------------
      LOOP:  cpu time    2.1480: real time    2.1747

 eigenvalue-minimisations  :   744
 total energy-change (2. order) :-0.5122811E-02  (-0.3417922E-04)
 number of electron     186.9999668 magnetization       1.0180869
 augmentation part      119.9156529 magnetization       0.1574302

 Broyden mixing:
  rms(total) = 0.16648E-02    rms(broyden)= 0.16642E-02
  rms(prec ) = 0.24755E-02
  weight for this iteration     100.00

 eigenvalues of (default mixing * dielectric matrix)
  average eigenvalue GAMMA=   1.4315
  8.5835  4.3632  3.0388  2.2488  1.7343  1.7343  1.0809  1.0809  1.1778  0.8381
  0.8381  0.7317  0.6380  0.6380  0.6185  0.5134  0.5134  0.3743  0.3743  0.4998
  0.4370  0.4370  0.4302

 Free energy of the ion-electron system (eV)
  ---------------------------------------------------
  alpha Z        PSCENC =        26.83546235
  Ewald energy   TEWEN  =     33692.75237248
  -Hartree energ DENC   =    -55192.67745549
  -exchange      EXHF   =         0.00000000
  -V(xc)+E(xc)   XCENC  =       751.94644911
  PAW double counting   =     21956.26022053   -23779.73056189
  entropy T*S    EENTRO =         0.00000000
  eigenvalues    EBANDS =     -1146.12701149
  atomic energy  EATOM  =     23645.90493918
  Solvation  Ediel_sol  =         0.00000000
  ---------------------------------------------------
  free energy    TOTEN  =       -44.83558522 eV

  energy without entropy =      -44.83558522  energy(sigma->0) =      -44.83558522


--------------------------------------------------------------------------------------------------------




--------------------------------------- Iteration      1(  29)  ---------------------------------------


    POTLOK:  cpu time    0.2080: real time    0.2145
    SETDIJ:  cpu time    0.0040: real time    0.0057
     EDDAV:  cpu time    1.8480: real time    1.8469
       DOS:  cpu time    0.0000: real time    0.0007
    CHARGE:  cpu time    0.0600: real time    0.0594
    MIXING:  cpu time    0.0120: real time    0.0153
    --------------------------------------------
      LOOP:  cpu time    2.1360: real time    2.1425

 eigenvalue-minimisations  :   736
 total energy-change (2. order) :-0.3942308E-02  (-0.2411848E-04)
 number of electron     186.9999668 magnetization       1.0111942
 augmentation part      119.9166360 magnetization       0.1504455

 Broyden mixing:
  rms(total) = 0.13112E-02    rms(broyden)= 0.13107E-02
  rms(prec ) = 0.17874E-02
  weight for this iteration     100.00

 eigenvalues of (default mixing * dielectric matrix)
  average eigenvalue GAMMA=   1.4439
  8.5854  4.5739  3.4085  2.5195  1.7949  1.7949  1.0768  1.0768  1.0492  1.0492
  0.8283  0.8283  0.6499  0.6499  0.5139  0.5139  0.6181  0.5740  0.3743  0.3743
  0.4964  0.4389  0.4389  0.4259

 Free energy of the ion-electron system (eV)
  ---------------------------------------------------
  alpha Z        PSCENC =        26.83546235
  Ewald energy   TEWEN  =     33692.75237248
  -Hartree energ DENC   =    -55191.61346993
  -exchange      EXHF   =         0.00000000
  -V(xc)+E(xc)   XCENC  =       751.93577268
  PAW double counting   =     21956.68806145   -23780.16300454
  entropy T*S    EENTRO =         0.00000000
  eigenvalues    EBANDS =     -1147.17966120
  atomic energy  EATOM  =     23645.90493918
  Solvation  Ediel_sol  =         0.00000000
  ---------------------------------------------------
  free energy    TOTEN  =       -44.83952753 eV

  energy without entropy =      -44.83952753  energy(sigma->0) =      -44.83952753


--------------------------------------------------------------------------------------------------------




--------------------------------------- Iteration      1(  30)  ---------------------------------------


    POTLOK:  cpu time    0.2080: real time    0.2231
    SETDIJ:  cpu time    0.0040: real time    0.0057
     EDDAV:  cpu time    1.4200: real time    1.4207
       DOS:  cpu time    0.0040: real time    0.0007
    CHARGE:  cpu time    0.0560: real time    0.0597
    MIXING:  cpu time    0.0160: real time    0.0160
    --------------------------------------------
      LOOP:  cpu time    1.7080: real time    1.7259

 eigenvalue-minimisations  :   512
 total energy-change (2. order) :-0.1750926E-02  (-0.6390855E-05)
 number of electron     186.9999668 magnetization       1.0044592
 augmentation part      119.9175082 magnetization       0.1441969

 Broyden mixing:
  rms(total) = 0.83222E-03    rms(broyden)= 0.83196E-03
  rms(prec ) = 0.11826E-02
  weight for this iteration     100.00

 eigenvalues of (default mixing * dielectric matrix)
  average eigenvalue GAMMA=   1.4662
  8.5748  4.9628  3.7625  2.4180  1.8677  1.8677  1.4043  1.0778  1.0778  1.1870
  0.8369  0.8369  0.7033  0.7033  0.6414  0.6414  0.5136  0.5136  0.5430  0.3743
  0.3743  0.4474  0.4474  0.4391  0.4391

 Free energy of the ion-electron system (eV)
  ---------------------------------------------------
  alpha Z        PSCENC =        26.83546235
  Ewald energy   TEWEN  =     33692.75237248
  -Hartree energ DENC   =    -55190.96090832
  -exchange      EXHF   =         0.00000000
  -V(xc)+E(xc)   XCENC  =       751.92999735
  PAW double counting   =     21956.64126638   -23780.11392586
  entropy T*S    EENTRO =         0.00000000
  eigenvalues    EBANDS =     -1147.83048202
  atomic energy  EATOM  =     23645.90493918
  Solvation  Ediel_sol  =         0.00000000
  ---------------------------------------------------
  free energy    TOTEN  =       -44.84127846 eV

  energy without entropy =      -44.84127846  energy(sigma->0) =      -44.84127846


--------------------------------------------------------------------------------------------------------




--------------------------------------- Iteration      1(  31)  ---------------------------------------


    POTLOK:  cpu time    0.2080: real time    0.2199
    SETDIJ:  cpu time    0.0040: real time    0.0058
     EDDAV:  cpu time    1.4480: real time    1.4480
       DOS:  cpu time    0.0000: real time    0.0005
    CHARGE:  cpu time    0.0600: real time    0.0605
    MIXING:  cpu time    0.0160: real time    0.0164
    --------------------------------------------
      LOOP:  cpu time    1.7320: real time    1.7510

 eigenvalue-minimisations  :   528
 total energy-change (2. order) :-0.1613017E-02  (-0.6803706E-05)
 number of electron     186.9999668 magnetization       0.9997901
 augmentation part      119.9168574 magnetization       0.1397742

 Broyden mixing:
  rms(total) = 0.65331E-03    rms(broyden)= 0.65305E-03
  rms(prec ) = 0.85750E-03
  weight for this iteration     100.00

 eigenvalues of (default mixing * dielectric matrix)
  average eigenvalue GAMMA=   1.4740
  8.5853  5.2951  4.0311  2.3210  2.3210  1.6684  1.6684  1.0787  1.0787  1.0829
  0.9418  0.8341  0.8341  0.7027  0.6420  0.6420  0.5136  0.5136  0.5465  0.5302
  0.3743  0.3743  0.4444  0.4444  0.4278  0.4278

 Free energy of the ion-electron system (eV)
  ---------------------------------------------------
  alpha Z        PSCENC =        26.83546235
  Ewald energy   TEWEN  =     33692.75237248
  -Hartree energ DENC   =    -55190.44468739
  -exchange      EXHF   =         0.00000000
  -V(xc)+E(xc)   XCENC  =       751.92772211
  PAW double counting   =     21956.65086800   -23780.14670976
  entropy T*S    EENTRO =         0.00000000
  eigenvalues    EBANDS =     -1148.32285843
  atomic energy  EATOM  =     23645.90493918
[...]
 total charge-density along one line
 
 soft charge-density along one line, spin component           2
         0         1         2         3         4         5         6         7         8         9
 total charge-density along one line
 
 pseudopotential strength for first ion, spin component:           1
-10.558   0.021  -0.040   0.006   0.002   1.040  -0.017   0.029
  0.021 -10.554  -0.001   0.026  -0.005  -0.017   1.038   0.000
 -0.040  -0.001 -10.545   0.016  -0.021   0.029   0.000   1.032
  0.006   0.026   0.016 -10.521   0.019  -0.005  -0.019  -0.012
  0.002  -0.005  -0.021   0.019 -10.548  -0.001   0.004   0.015
  1.040  -0.017   0.029  -0.005  -0.001   6.286   0.011  -0.019
 -0.017   1.038   0.000  -0.019   0.004   0.011   6.287  -0.000
  0.029   0.000   1.032  -0.012   0.015  -0.019  -0.000   6.290
 -0.005  -0.019  -0.012   1.014  -0.015   0.004   0.012   0.008
 -0.001   0.004   0.015  -0.015   1.033   0.001  -0.002  -0.009
 -0.007  -0.002  -0.000  -0.006  -0.004  -0.001  -0.000  -0.002
 -0.012  -0.004   0.000  -0.011  -0.006  -0.003  -0.000  -0.003
  0.007  -0.002   0.009  -0.000   0.017  -0.003  -0.000  -0.004
 -0.000  -0.016   0.001   0.007   0.000  -0.000   0.008  -0.001
 -0.016  -0.000  -0.004  -0.001   0.007   0.007  -0.000   0.001
  0.006  -0.001   0.009  -0.000   0.017  -0.001  -0.001  -0.002
 -0.000  -0.016   0.002   0.007   0.000  -0.000   0.005  -0.002
 -0.015  -0.000  -0.003  -0.000   0.006   0.003  -0.000  -0.000
 pseudopotential strength for first ion, spin component:           2
-10.537   0.018  -0.031   0.004   0.009   1.024  -0.014   0.023
  0.018 -10.543  -0.004   0.027  -0.006  -0.014   1.029   0.002
 -0.031  -0.004 -10.524   0.014  -0.015   0.023   0.002   1.014
  0.004   0.027   0.014 -10.509   0.017  -0.003  -0.021  -0.010
  0.009  -0.006  -0.015   0.017 -10.534  -0.007   0.005   0.011
  1.024  -0.014   0.023  -0.003  -0.007   6.295   0.009  -0.016
 -0.014   1.029   0.002  -0.021   0.005   0.009   6.293  -0.002
  0.023   0.002   1.014  -0.010   0.011  -0.016  -0.002   6.301
 -0.003  -0.021  -0.010   1.003  -0.014   0.002   0.014   0.007
 -0.007   0.005   0.011  -0.014   1.022   0.005  -0.002  -0.007
 -0.007  -0.001  -0.001  -0.005  -0.004   0.001  -0.001   0.000
 -0.013  -0.002  -0.002  -0.009  -0.007   0.001  -0.002   0.001
  0.008  -0.002   0.010  -0.000   0.018  -0.005   0.000  -0.006
 -0.000  -0.017   0.001   0.007   0.001  -0.000   0.009  -0.001
 -0.017  -0.000  -0.004  -0.001   0.007   0.009  -0.000   0.002
  0.009  -0.002   0.011  -0.000   0.019  -0.004  -0.000  -0.005
 -0.000  -0.017   0.002   0.007   0.001  -0.000   0.007  -0.002
 -0.017  -0.000  -0.004  -0.000   0.006   0.007  -0.000   0.001
 total augmentation occupancy for first ion, spin component:           1
  1.947   0.002  -0.013   0.004   0.008  -0.010  -0.006   0.007  -0.003  -0.005   0.036  -0.001  -0.025  -0.006   0.079   0.014
  0.002   1.954  -0.002   0.004   0.002  -0.006  -0.010   0.004  -0.004   0.005   0.004   0.005  -0.015   0.073  -0.009  -0.003
 -0.013  -0.002   1.948   0.006  -0.003   0.007   0.004  -0.011  -0.007   0.003   0.020  -0.005  -0.036   0.045   0.020   0.018
  0.004   0.004   0.006   1.962   0.007  -0.003  -0.003  -0.007  -0.019  -0.002   0.017   0.005  -0.008  -0.035   0.007   0.000
  0.008   0.002  -0.003   0.007   1.952  -0.005   0.006   0.003  -0.002  -0.018   0.016  -0.000  -0.056   0.010  -0.041   0.032
 -0.010  -0.006   0.007  -0.003  -0.005   0.007  -0.002   0.001   0.000   0.000  -0.034   0.003  -0.009  -0.005   0.017   0.001
 -0.006  -0.010   0.004  -0.003   0.006  -0.002   0.008   0.001  -0.002   0.001  -0.019  -0.000  -0.003   0.020  -0.004   0.000
  0.007   0.004  -0.011  -0.007   0.003   0.001   0.001   0.006  -0.001   0.002   0.001   0.001  -0.009   0.008   0.001   0.001
 -0.003  -0.004  -0.007  -0.019  -0.002   0.000  -0.002  -0.001   0.005  -0.001  -0.037   0.002  -0.003  -0.009   0.004   0.000
 -0.005   0.005   0.003  -0.002  -0.018   0.000   0.001   0.002  -0.001   0.006  -0.024   0.003  -0.016   0.005  -0.003   0.001
  0.036   0.004   0.020   0.017   0.016  -0.034  -0.019   0.001  -0.037  -0.024   1.645  -0.077   0.234   0.037  -0.109  -0.028
 -0.001   0.005  -0.005   0.005  -0.000   0.003  -0.000   0.001   0.002   0.003  -0.077   0.008  -0.023  -0.005   0.009   0.002
 -0.025  -0.015  -0.036  -0.008  -0.056  -0.009  -0.003  -0.009  -0.003  -0.016   0.234  -0.023   0.087  -0.009  -0.018  -0.009
 -0.006   0.073   0.045  -0.035   0.010  -0.005   0.020   0.008  -0.009   0.005   0.037  -0.005  -0.009   0.078  -0.023   0.000
  0.079  -0.009   0.020   0.007  -0.041   0.017  -0.004   0.001   0.004  -0.003  -0.109   0.009  -0.018  -0.023   0.057   0.002
  0.014  -0.003   0.018   0.000   0.032   0.001   0.000   0.001   0.000   0.001  -0.028   0.002  -0.009   0.000   0.002   0.002
  0.000  -0.032  -0.007   0.015  -0.001   0.000  -0.001  -0.000   0.000  -0.000  -0.005   0.000   0.000  -0.005   0.001   0.000
 -0.032   0.000  -0.009  -0.004   0.016  -0.001   0.000  -0.000  -0.000  -0.000   0.012  -0.001   0.002   0.001  -0.005  -0.000
 total augmentation occupancy for first ion, spin component:           2
  0.008  -0.002   0.007  -0.001   0.005   0.000   0.000  -0.001   0.000  -0.001  -0.021  -0.004   0.008  -0.000  -0.006   0.001
 -0.002   0.002  -0.001  -0.000  -0.001   0.000   0.001   0.000  -0.000   0.000   0.006   0.001  -0.002  -0.003   0.001  -0.000
  0.007  -0.001   0.006  -0.001   0.004  -0.001   0.000  -0.000   0.000  -0.001  -0.018  -0.003   0.006   0.000  -0.005   0.001
 -0.001  -0.000  -0.001   0.000  -0.001   0.000  -0.000   0.000   0.001   0.000   0.004   0.000  -0.001   0.002   0.001  -0.000
  0.005  -0.001   0.004  -0.001   0.005  -0.001   0.000  -0.001   0.000   0.001  -0.013  -0.003   0.006   0.000  -0.001   0.001
  0.000   0.000  -0.001   0.000  -0.001   0.000  -0.000   0.000  -0.000   0.000   0.004   0.000  -0.001  -0.000   0.001  -0.000
  0.000   0.001   0.000  -0.000   0.000  -0.000  -0.000  -0.000   0.000  -0.000  -0.001  -0.000   0.000   0.000  -0.000   0.000
 -0.001   0.000  -0.000   0.000  -0.001   0.000  -0.000   0.000  -0.000   0.000   0.004   0.000  -0.001   0.000   0.001  -0.000
  0.000  -0.000   0.000   0.001   0.000  -0.000   0.000  -0.000  -0.000  -0.000  -0.001  -0.000   0.000   0.000  -0.000   0.000
 -0.001   0.000  -0.001   0.000   0.001   0.000  -0.000   0.000  -0.000   0.000   0.003   0.000  -0.001  -0.000   0.001  -0.000
 -0.021   0.006  -0.018   0.004  -0.013   0.004  -0.001   0.004  -0.001   0.003   0.073   0.004  -0.022  -0.001   0.017  -0.001
 -0.004   0.001  -0.003   0.000  -0.003   0.000  -0.000   0.000  -0.000   0.000   0.004   0.000  -0.001  -0.000   0.001  -0.000
  0.008  -0.002   0.006  -0.001   0.006  -0.001   0.000  -0.001   0.000  -0.001  -0.022  -0.001   0.003  -0.000  -0.002   0.000
 -0.000  -0.003   0.000   0.002   0.000  -0.000   0.000   0.000   0.000  -0.000  -0.001  -0.000  -0.000   0.001  -0.000   0.000
 -0.006   0.001  -0.005   0.001  -0.001   0.001  -0.000   0.001  -0.000   0.001   0.017   0.001  -0.002  -0.000   0.002  -0.000
  0.001  -0.000   0.001  -0.000   0.001  -0.000   0.000  -0.000   0.000  -0.000  -0.001  -0.000   0.000   0.000  -0.000   0.000
  0.000  -0.000   0.000   0.000   0.000  -0.000  -0.000  -0.000   0.000  -0.000  -0.000  -0.000   0.000   0.000  -0.000   0.000
 -0.001   0.000  -0.000   0.000   0.000   0.000  -0.000   0.000  -0.000   0.000   0.000   0.000  -0.000  -0.000   0.000  -0.000


------------------------ aborting loop because EDIFF is reached ----------------------------------------


 


 total charge     
 
# of ion       s       p       d       tot
------------------------------------------
    1        0.489   0.115   9.282   9.885
    2        0.474   0.215   9.248   9.938
    3        0.385   0.301   9.259   9.945
    4        0.477   0.249   9.224   9.951
    5        0.478   0.195   9.254   9.926
    6        0.493   0.110   9.283   9.886
    7        0.482   0.187   9.250   9.920
    8        0.476   0.197   9.250   9.923
    9        0.447   0.301   9.217   9.966
   10        0.452   0.300   9.218   9.970
   11        0.468   0.231   9.230   9.929
   12        0.480   0.187   9.250   9.917
   13        0.448   0.256   9.233   9.937
   14        0.446   0.259   9.233   9.938
   15        0.443   0.291   9.227   9.961
   16        0.487   0.138   9.272   9.897
   17        0.483   0.136   9.274   9.893
--------------------------------------------------
tot          7.907   3.669 157.205 168.781
 


 magnetization (x)
 
# of ion       s       p       d       tot
------------------------------------------
    1        0.030   0.004   0.017   0.051
    2       -0.000   0.003   0.017   0.020
    3        0.020   0.006  -0.001   0.025
    4       -0.000   0.010   0.008   0.018
    5        0.000   0.004   0.006   0.010
    6        0.025   0.004   0.016   0.044
    7        0.008   0.006   0.008   0.023
    8        0.000   0.004   0.008   0.012
    9        0.004   0.002   0.033   0.039
   10        0.005   0.001   0.029   0.036
   11       -0.001   0.012   0.010   0.021
   12        0.011   0.006   0.008   0.025
   13        0.004   0.001   0.011   0.016
   14        0.003   0.002   0.011   0.016
   15        0.007   0.012   0.005   0.024
   16        0.022   0.008   0.020   0.050
   17        0.020   0.008   0.021   0.048
--------------------------------------------------
tot          0.158   0.093   0.227   0.478
 
    CHARGE:  cpu time    0.0600: real time    0.0598
    FORLOC:  cpu time    0.0080: real time    0.0081
    FORNL :  cpu time    0.5880: real time    0.5906
    STRESS:  cpu time    0.8240: real time    0.8243
    FORCOR:  cpu time    0.1960: real time    0.1977
    FORHAR:  cpu time    0.0280: real time    0.0277
    MIXING:  cpu time    0.0240: real time    0.0222
    OFIELD:  cpu time    0.0000: real time    0.0001

  FORCE on cell =-STRESS in cart. coord.  units (eV):
  Direction    XX          YY          ZZ          XY          YZ          ZX
  --------------------------------------------------------------------------------------
  Alpha Z    26.83546    26.83546    26.83546
  Ewald   11238.61973 11108.68783 11345.42586   450.80184   -19.39153  -660.73529
  Hartree 18387.48874 18285.09580 18517.30515   451.73764    -2.40718  -607.89859
  E(xc)   -1090.85373 -1090.92257 -1090.88092    -0.13494    -0.03945    -0.07328
  Local  -31289.79602-31058.27261-31532.12581  -904.64201    20.90613  1268.01864
  n-local  -403.50306  -403.94554  -402.68903     0.33090    -0.14344    -0.10877
  augment  1594.66324  1595.13479  1597.32035     1.34539     0.55464     0.29728
  Kinetic  1531.94766  1532.41531  1534.40848     0.69519     0.56139     0.57800
  Fock        0.00000     0.00000     0.00000     0.00000     0.00000     0.00000
  -------------------------------------------------------------------------------------
  Total      -4.59798    -4.97153    -4.40046     0.13401     0.04056     0.07799
  in kB      -0.93536    -1.01135    -0.89517     0.02726     0.00825     0.01587
  external pressure =       -0.95 kB  Pullay stress =        0.00 kB


 VOLUME and BASIS-vectors are now :
 -----------------------------------------------------------------------------
  energy-cutoff  :      295.45
  volume of cell :     7875.91
      direct lattice vectors                 reciprocal lattice vectors
    19.896056000  0.000000000  0.000000000     0.050261218  0.000000000  0.000000000
     0.000000000 19.896056000  0.000000000     0.000000000  0.050261218  0.000000000
     0.000000000  0.000000000 19.896056000     0.000000000  0.000000000  0.050261218

  length of vectors
    19.896056000 19.896056000 19.896056000     0.050261218  0.050261218  0.050261218


 FORCES acting on ions
    electron-ion (+dipol)            ewald-force                    non-local-force                 convergence-correction
 -----------------------------------------------------------------------------------------------
   -.281E+03 0.141E+04 0.287E+03   0.277E+03 -.140E+04 -.286E+03   0.452E+01 -.923E+01 -.130E+01   -.184E-03 0.359E-03 0.963E-04
   0.525E+03 -.917E+03 -.120E+04   -.524E+03 0.914E+03 0.120E+04   -.126E+01 0.331E+01 0.619E+01   0.354E-03 -.280E-03 0.109E-03
   -.427E+03 0.388E+03 -.267E+03   0.426E+03 -.387E+03 0.267E+03   0.521E+00 -.938E+00 -.515E+00   -.651E-04 -.931E-04 -.213E-03
   -.431E+03 0.761E+03 0.108E+04   0.430E+03 -.759E+03 -.107E+04   0.128E+01 -.190E+01 -.243E+01   -.174E-03 0.712E-05 0.212E-03
   0.219E+03 0.132E+04 -.709E+03   -.219E+03 -.131E+04 0.706E+03   -.847E-01 -.628E+01 0.304E+01   0.792E-04 -.113E-03 -.225E-03
   -.125E+04 0.368E+03 0.646E+03   0.125E+04 -.363E+03 -.642E+03   0.905E+01 -.453E+01 -.408E+01   -.252E-03 0.846E-04 0.183E-04
   0.312E+01 0.529E+03 -.147E+04   -.322E+01 -.527E+03 0.147E+04   0.808E-01 -.221E+01 0.708E+01   -.117E-04 0.585E-04 -.336E-03
   -.145E+04 -.180E+03 -.281E+03   0.145E+04 0.181E+03 0.280E+03   0.638E+01 -.101E+01 0.136E+01   -.271E-03 -.168E-03 -.229E-03
   0.828E+03 0.948E+03 0.596E+03   -.825E+03 -.945E+03 -.595E+03   -.328E+01 -.250E+01 -.929E+00   0.136E-03 0.865E-04 0.101E-03
   -.740E+03 -.612E+03 0.993E+03   0.738E+03 0.609E+03 -.991E+03   0.181E+01 0.240E+01 -.182E+01   -.125E-03 -.221E-03 0.175E-03
   0.541E+03 -.181E+03 0.138E+04   -.539E+03 0.180E+03 -.138E+04   -.169E+01 0.702E+00 -.392E+01   0.206E-03 -.178E-03 0.451E-03
   -.938E+03 -.306E+03 -.122E+04   0.934E+03 0.305E+03 0.122E+04   0.418E+01 0.170E+01 0.633E+01   -.329E-03 -.115E-03 -.144E-03
   0.129E+04 0.261E+03 -.753E+03   -.128E+04 -.260E+03 0.750E+03   -.437E+01 -.115E+01 0.296E+01   0.256E-03 -.243E-03 -.280E-03
   -.503E+03 -.138E+04 -.304E+03   0.501E+03 0.138E+04 0.303E+03   0.229E+01 0.469E+01 0.136E+01   0.480E-04 -.258E-03 -.272E-03
   0.967E+03 -.103E+04 -.321E+02   -.965E+03 0.102E+04 0.346E+02   -.174E+01 0.101E+01 -.252E+01   0.158E-03 -.371E-03 -.318E-03
   0.151E+04 -.166E+02 0.467E+03   -.150E+04 0.161E+02 -.464E+03   -.105E+02 0.488E+00 -.288E+01   0.258E-03 -.234E-03 -.454E-04
   0.139E+03 -.136E+04 0.797E+03   -.137E+03 0.135E+04 -.792E+03   -.140E+01 0.973E+01 -.509E+01   0.219E-03 -.909E-04 0.904E-04
 -----------------------------------------------------------------------------------------------
   -.581E+01 0.564E+01 -.292E+01   0.125E-11 0.114E-11 -.796E-12   0.580E+01 -.574E+01 0.284E+01   0.303E-03 -.177E-02 -.810E-03
 
 
 POSITION                                       TOTAL-FORCE (eV/Angst)
 -----------------------------------------------------------------------------------
     10.23434      6.61027      9.21373        -0.034131      0.025265     -0.010497
      9.16978     11.38809     12.19388         0.000079     -0.007320      0.007307
     10.33538      9.62215     10.51029         0.029579      0.009079      0.009299
     10.76011      8.64105      8.08488        -0.030145      0.000941     -0.033699
      9.28730      7.45242     11.24260        -0.042510      0.002103      0.006849
     13.03509      9.34758      8.21982         0.009764     -0.004698      0.004747
      9.74077      9.13614     12.88451        -0.023009      0.028653      0.014481
     12.65110     10.53507     10.26894         0.007951      0.019177      0.015603
      8.59409      8.37533      9.09648         0.005833     -0.024866     -0.012379
     11.26197     10.96216      8.34085        -0.003751      0.019012      0.000889
      8.96223     10.40941      7.80850        -0.001175      0.016923     -0.011932
     11.51417     10.73074     12.38133         0.040683     -0.013327      0.001117
      7.91770      9.50871     11.20552        -0.013607      0.002876      0.016847
     10.73626     12.11644     10.45083         0.002201     -0.007081      0.019697
      8.41416     11.53841      9.92402         0.060172     -0.025104     -0.013408
      6.83217      9.99203      9.01105        -0.024384     -0.004965     -0.016999
      9.66984     12.75046      8.27924         0.016451     -0.036668      0.002077
 -----------------------------------------------------------------------------------
    total drift:                               -0.010329     -0.092738     -0.078894


--------------------------------------------------------------------------------------------------------



  FREE ENERGIE OF THE ION-ELECTRON SYSTEM (eV)
  ---------------------------------------------------
  free  energy   TOTEN  =       -44.84361470 eV

  energy  without entropy=      -44.84361470  energy(sigma->0) =      -44.84361470
 


--------------------------------------------------------------------------------------------------------


    POTLOK:  cpu time    0.2080: real time    0.2102


--------------------------------------------------------------------------------------------------------




--------------------------------------------------------------------------------------------------------


  
 reached required accuracy - stopping structural energy minimisation
     LOOP+:  cpu time   79.6440: real time   80.3005
    4ORBIT:  cpu time    0.0000: real time    0.0000
 


 total charge     
 
# of ion       s       p       d       tot
------------------------------------------
    1        0.489   0.115   9.282   9.885
    2        0.474   0.215   9.248   9.938
    3        0.385   0.301   9.259   9.945
    4        0.477   0.249   9.224   9.951
    5        0.478   0.195   9.254   9.926
    6        0.493   0.110   9.283   9.886
    7        0.482   0.187   9.250   9.920
    8        0.476   0.197   9.250   9.923
    9        0.447   0.301   9.217   9.966
   10        0.452   0.300   9.218   9.970
   11        0.468   0.231   9.230   9.929
   12        0.480   0.187   9.250   9.917
   13        0.448   0.256   9.233   9.937
   14        0.446   0.259   9.233   9.938
   15        0.443   0.291   9.227   9.961
   16        0.487   0.138   9.272   9.897
   17        0.483   0.136   9.274   9.893
--------------------------------------------------
tot          7.907   3.669 157.205 168.781
 


 magnetization (x)
 
# of ion       s       p       d       tot
------------------------------------------
    1        0.030   0.004   0.017   0.051
    2       -0.000   0.003   0.017   0.020
    3        0.020   0.006  -0.001   0.025
    4       -0.000   0.010   0.008   0.018
    5        0.000   0.004   0.006   0.010
    6        0.025   0.004   0.016   0.044
    7        0.008   0.006   0.008   0.023
    8        0.000   0.004   0.008   0.012
    9        0.004   0.002   0.033   0.039
   10        0.005   0.001   0.029   0.036
   11       -0.001   0.012   0.010   0.021
   12        0.011   0.006   0.008   0.025
   13        0.004   0.001   0.011   0.016
   14        0.003   0.002   0.011   0.016
   15        0.007   0.012   0.005   0.024
   16        0.022   0.008   0.020   0.050
   17        0.020   0.008   0.021   0.048
--------------------------------------------------
tot          0.158   0.093   0.227   0.478
 

 total amount of memory used by VASP MPI-rank0    54151. kBytes
=======================================================================

   base      :      30000. kBytes
   nonl-proj :       1718. kBytes
   fftplans  :       5013. kBytes
   grid      :      12741. kBytes
   one-center:         31. kBytes
   wavefun   :       4648. kBytes
 
  
  
 General timing and accounting informations for this job:
 ========================================================
  
                  Total CPU time used (sec):       82.696
                            User time (sec):       81.536
                          System time (sec):        1.160
                         Elapsed time (sec):       83.413
  
                   Maximum memory used (kb):       38196.
                   Average memory used (kb):           0.
  
                          Minor page faults:        13400
                          Major page faults:           36
                 Voluntary context switches:          503
