 vasp.5.4.1 05Feb16 (build Apr 11 2020 03:28:46) gamma-only                     
  
 executed on           IFC91_ompi date 2022.06.04  09:42:05
 running on   24 total cores
 distrk:  each k-point on   24 cores,    1 groups
 distr:  one band on NCORES_PER_BAND=   6 cores,    4 groups


--------------------------------------------------------------------------------------------------------


 INCAR:
 POTCAR:    PAW_PBE Cu 22Jun2005                  
 POTCAR:    PAW_PBE Cu 22Jun2005                  
   VRHFIN =Cu: d10 p1                                                           
   LEXCH  = PE                                                                  
   EATOM  =  1390.9808 eV,  102.2342 Ry                                         
                                                                                
   TITEL  = PAW_PBE Cu 22Jun2005                                                
   LULTRA =        F    use ultrasoft PP ?                                      
   IUNSCR =        1    unscreen: 0-lin 1-nonlin 2-no                           
   RPACOR =    2.000    partial core radius                                     
   POMASS =   63.546; ZVAL   =   11.000    mass and valenz                      
   RCORE  =    2.300    outmost cutoff radius                                   
   RWIGS  =    2.200; RWIGS  =    1.164    wigner-seitz radius (au A)           
   ENMAX  =  295.446; ENMIN  =  221.585 eV                                      
   ICORE  =        3    local potential                                         
   LCOR   =        T    correct aug charges                                     
   LPAW   =        T    paw PP                                                  
   EAUG   =  586.980                                                            
   DEXC   =    0.000                                                            
   RMAX   =    2.344    core radius for proj-oper                               
   RAUG   =    1.300    factor for augmentation sphere                          
   RDEP   =    2.302    radius for radial grids                                 
   RDEPT  =    1.771    core radius for aug-charge                              
                                                                                
   Atomic configuration                                                         
    9 entries                                                                   
     n  l   j            E        occ.                                          
     1  0  0.50     -8850.2468   2.0000                                         
     2  0  0.50     -1062.3498   2.0000                                         
     2  1  1.50      -916.8226   6.0000                                         
     3  0  0.50      -114.6929   2.0000                                         
     3  1  1.50       -72.1325   6.0000                                         
     3  2  2.50        -5.0394  10.0000                                         
     4  0  0.50        -4.6097   1.0000                                         
     4  1  0.50        -4.0817   0.0000                                         
     4  3  2.50        -1.3606   0.0000                                         
   Description                                                                  
     l       E           TYP  RCUT    TYP  RCUT                                 
     2     -5.0393973     23  2.200                                             
     2     10.8846608     23  2.200                                             
     0     -4.6097109     23  2.200                                             
     0      8.2520465     23  2.200                                             
     1     -2.7211652     23  2.200                                             
     1     21.7055443     23  2.200                                             
     3      2.7211652     23  2.300                                             
  local pseudopotential read in
  partial core-charges read in
  partial kinetic energy density read in
  atomic valenz-charges read in
  non local Contribution for L=           2  read in
    real space projection operators read in
  non local Contribution for L=           2  read in
    real space projection operators read in
  non local Contribution for L=           0  read in
    real space projection operators read in
  non local Contribution for L=           0  read in
    real space projection operators read in
  non local Contribution for L=           1  read in
    real space projection operators read in
  non local Contribution for L=           1  read in
    real space projection operators read in
    PAW grid and wavefunctions read in
 
   number of l-projection  operators is LMAX  =           6
   number of lm-projection operators is LMMAX =          18
 

 ----------------------------------------------------------------------------- 
|                                                                             |
|  ADVICE TO THIS USER RUNNING 'VASP/VAMP'   (HEAR YOUR MASTER'S VOICE ...):  |
|                                                                             |
|      You have a (more or less) 'large supercell' and for larger cells       |
|      it might be more efficient to use real space projection opertators     |
|      So try LREAL= Auto  in the INCAR   file.                               |
|      Mind: At the moment your POTCAR file does not contain real space       |
|       projectors, and has to be modified,  BUT if you                       |
|      want to do an extremely  accurate calculation you might also keep the  |
|      reciprocal projection scheme          (i.e. LREAL=.FALSE.)             |
|                                                                             |
 ----------------------------------------------------------------------------- 

  PAW_PBE Cu 22Jun2005                  :
 energy of atom  1       EATOM=-1390.9808
 kinetic energy error for atom=    0.0452 (will be added to EATOM!!)
 
 
 POSCAR: Unknown Structure <s> Cu </s>           
  positions in direct lattice
  velocities in cartesian coordinates
 exchange correlation table for  LEXCH =        8
   RHO(1)=    0.500       N(1)  =     2000
   RHO(2)=  100.500       N(2)  =     4000
 


--------------------------------------------------------------------------------------------------------


 ion  position               nearest neighbor table
   1  0.431  0.260  0.353-   9 2.40  13 2.40   2 2.42  15 2.52
   2  0.404  0.265  0.277-   1 2.42  12 2.43  15 2.43  14 2.49   9 2.50
   3  0.317  0.437  0.369-   8 2.42  18 2.42   5 2.42  17 2.50  16 2.51
   4  0.277  0.299  0.226-   6 2.40   7 2.41  14 2.42  12 2.53
   5  0.291  0.443  0.293-   6 2.40  16 2.40   3 2.42  18 2.54
   6  0.284  0.371  0.260-   5 2.40   4 2.40  18 2.42  12 2.43   7 2.53  16 2.54
   7  0.282  0.300  0.306-   4 2.41  10 2.42  18 2.46  12 2.47  15 2.48  14 2.49   6 2.53
   8  0.355  0.369  0.388-   3 2.42  17 2.42  13 2.44   9 2.46  10 2.47  16 2.49  11 2.53  18 2.77

   9  0.396  0.329  0.330-   1 2.40  16 2.42   8 2.46  15 2.48  12 2.48   2 2.50  13 2.54
  10  0.300  0.308  0.384-  11 2.41   7 2.42   8 2.47  15 2.48  18 2.49  17 2.51  13 2.52
  11  0.329  0.327  0.457-  13 2.40  10 2.41  17 2.42   8 2.53
  12  0.349  0.322  0.263-   2 2.43  14 2.43   6 2.43   7 2.47  16 2.48   9 2.48   4 2.53
  13  0.379  0.293  0.405-  11 2.40   1 2.40   8 2.44  15 2.45  10 2.52   9 2.54
  14  0.325  0.245  0.261-  15 2.42   4 2.42  12 2.43   2 2.49   7 2.49
  15  0.349  0.262  0.336-  14 2.42   2 2.43  13 2.45   9 2.48   7 2.48  10 2.48   1 2.52
  16  0.350  0.391  0.308-   5 2.40   9 2.42  18 2.47  12 2.48   8 2.49   3 2.51   6 2.54
  17  0.282  0.381  0.420-  18 2.42  11 2.42   8 2.42   3 2.50  10 2.51
  18  0.276  0.374  0.340-  17 2.42   3 2.42   6 2.42   7 2.46  16 2.47  10 2.49   5 2.54   8 2.77

 

IMPORTANT INFORMATION: All symmetrisations will be switched off!
NOSYMM: (Re-)initialisation of all symmetry stuff for point group C_1.

 
 
 KPOINTS: Gamma-point only                        
  k-points in reciprocal lattice
Space group operators:
 irot       det(A)        alpha          n_x          n_y          n_z        tau_x        tau_y        tau_z
    1     1.000000     0.000000     1.000000     0.000000     0.000000     0.000000     0.000000     0.000000


--------------------------------------------------------------------------------------------------------




 Dimension of arrays:
   k-points           NKPTS =      1   k-points in BZ     NKDIM =      1   number of bands    NBANDS=    148
   number of dos      NEDOS =    301   number of ions     NIONS =     18
   non local maximal  LDIM  =      6   non local SUM 2l+1 LMDIM =     18
   total plane-waves  NPLWV = ******
   max r-space proj   IRMAX =      1   max aug-charges    IRDMAX=   2345
   dimension x,y,z NGX =   126 NGY =  126 NGZ =  126
   dimension x,y,z NGXF=   252 NGYF=  252 NGZF=  252
   support grid    NGXF=   252 NGYF=  252 NGZF=  252
   ions per type =              18
 NGX,Y,Z   is equivalent  to a cutoff of   6.98,  6.98,  6.98 a.u.
 NGXF,Y,Z  is equivalent  to a cutoff of  13.96, 13.96, 13.96 a.u.


 I would recommend the setting:
   dimension x,y,z NGX =   126 NGY =  126 NGZ =  126
 SYSTEM =  unknown system                          
 POSCAR =  Unknown Structure <s> Cu </s>           

 Startparameter for this run:
   NWRITE =      2    write-flag & timer
   PREC   = normal    normal or accurate (medium, high low for compatibility)
   ISTART =      0    job   : 0-new  1-cont  2-samecut
   ICHARG =      2    charge: 1-file 2-atom 10-const
   ISPIN  =      2    spin polarized calculation?
   LNONCOLLINEAR =      F non collinear calculations
   LSORBIT =      F    spin-orbit coupling
   INIWAV =      1    electr: 0-lowe 1-rand  2-diag
   LASPH  =      F    aspherical Exc in radial PAW
   METAGGA=      F    non-selfconsistent MetaGGA calc.

 Electronic Relaxation 1
   ENCUT  =  295.4 eV  21.71 Ry    4.66 a.u.  42.05 42.05 42.05*2*pi/ulx,y,z
   ENINI  =  295.4     initial cutoff
   ENAUG  =  587.0 eV  augmentation charge cutoff
   NELM   =     60;   NELMIN=  2; NELMDL=  0     # of ELM steps 
   EDIFF  = 0.1E-05   stopping-criterion for ELM
   LREAL  =      F    real-space projection
   NLSPLINE    = F    spline interpolate recip. space projectors
   LCOMPAT=      F    compatible to vasp.4.4
   GGA_COMPAT  = T    GGA compatible to vasp.4.4-vasp.4.6
   LMAXPAW     = -100 max onsite density
   LMAXMIX     =    2 max onsite mixed and CHGCAR
   VOSKOWN=      0    Vosko Wilk Nusair interpolation
   ROPT   =    0.00000
 Ionic relaxation
   EDIFFG = -.3E-01   stopping-criterion for IOM
   NSW    =   1000    number of steps for IOM
   NBLOCK =      1;   KBLOCK =   1000    inner block; outer block 
   IBRION =      2    ionic relax: 0-MD 1-quasi-New 2-CG
   NFREE  =      1    steps in history (QN), initial steepest desc. (CG)
   ISIF   =      2    stress and relaxation
   IWAVPR =     11    prediction:  0-non 1-charg 2-wave 3-comb
   ISYM   =      0    0-nonsym 1-usesym 2-fastsym
   LCORR  =      T    Harris-Foulkes like correction to forces

   POTIM  = 0.5000    time-step for ionic-motion
   TEIN   =    0.0    initial temperature
   TEBEG  =    0.0;   TEEND  =   0.0 temperature during run
   SMASS  =  -3.00    Nose mass-parameter (am)
   estimated Nose-frequenzy (Omega)   =  0.10E-29 period in steps =****** mass=  -0.206E-25a.u.
   SCALEE = 1.0000    scale energy and forces
   NPACO  =    256;   APACO  = 16.0  distance and # of slots for P.C.
   PSTRESS=    0.0 pullay stress

  Mass of Ions in am
   POMASS =  63.55
  Ionic Valenz
   ZVAL   =  11.00
  Atomic Wigner-Seitz radii
   RWIGS  =  -1.00
  virtual crystal weights 
   VCA    =   1.00
   NELECT =     198.0000    total number of electrons
   NUPDOWN=      -1.0000    fix difference up-down

 DOS related values:
   EMIN   =  10.00;   EMAX   =-10.00  energy-range for DOS
   EFERMI =   0.00
   ISMEAR =     0;   SIGMA  =   0.00  broadening in eV -4-tet -1-fermi 0-gaus

 Electronic relaxation 2 (details)
   IALGO  =     38    algorithm
   LDIAG  =      T    sub-space diagonalisation (order eigenvalues)
   LSUBROT=      F    optimize rotation matrix (better conditioning)
   TURBO    =      0    0=normal 1=particle mesh
   IRESTART =      0    0=no restart 2=restart with 2 vectors
   NREBOOT  =      0    no. of reboots
   NMIN     =      0    reboot dimension
   EREF     =   0.00    reference energy to select bands
   IMIX   =      4    mixing-type and parameters
     AMIX     =   0.40;   BMIX     =  1.00
     AMIX_MAG =   1.60;   BMIX_MAG =  1.00
     AMIN     =   0.10
     WC   =   100.;   INIMIX=   1;  MIXPRE=   1;  MAXMIX= -45

 Intra band minimization:
   WEIMIN = 0.0010     energy-eigenvalue tresh-hold
   EBREAK =  0.17E-08  absolut break condition
   DEPER  =   0.30     relativ break condition  

   TIME   =   0.40     timestep for ELM

  volume/ion in A,a.u.               =    1500.00     10122.50
  Fermi-wavevector in a.u.,A,eV,Ry     =   0.318060  0.601046  1.376392  0.101162
  Thomas-Fermi vector in A             =   1.202564
 
 Write flags
   LWAVE  =      F    write WAVECAR
   LCHARG =      F    write CHGCAR
   LVTOT  =      F    write LOCPOT, total local potential
   LVHAR  =      F    write LOCPOT, Hartree potential only
   LELF   =      F    write electronic localiz. function (ELF)
   LORBIT =     11    0 simple, 1 ext, 2 COOP (PROOUT)


 Dipole corrections
   LMONO  =      F    monopole corrections only (constant potential shift)
   LDIPOL =      F    correct potential (dipole corrections)
   IDIPOL =      0    1-x, 2-y, 3-z, 4-all directions 
   EPSILON=  1.0000000 bulk dielectric constant

 Exchange correlation treatment:
   GGA     =    PE    GGA type
   LEXCH   =     8    internal setting for exchange type
   VOSKOWN=      0    Vosko Wilk Nusair interpolation
   LHFCALC =     F    Hartree Fock is set to
   LHFONE  =     F    Hartree Fock one center treatment
   AEXX    =    0.0000 exact exchange contribution

 Linear response parameters
   LEPSILON=     F    determine dielectric tensor
   LRPA    =     F    only Hartree local field effects (RPA)
   LNABLA  =     F    use nabla operator in PAW spheres
   LVEL    =     F    velocity operator in full k-point grid
   LINTERFAST=   F  fast interpolation
   KINTER  =     0    interpolate to denser k-point grid
   CSHIFT  =0.1000    complex shift for real part using Kramers Kronig
   OMEGAMAX=  -1.0    maximum frequency
   DEG_THRESHOLD= 0.2000000E-02 threshold for treating states as degnerate
   RTIME   =    0.100 relaxation time in fs

 Orbital magnetization related:
   ORBITALMAG=     F  switch on orbital magnetization
   LCHIMAG   =     F  perturbation theory with respect to B field
   DQ        =  0.001000  dq finite difference perturbation B field



--------------------------------------------------------------------------------------------------------


 conjugate gradient relaxation of ions
 charge density and potential will be updated during run
 spin polarized calculation
 Variant of blocked Davidson
 Davidson routine will perform the subspace rotation
 perform sub-space diagonalisation
    after iterative eigenvector-optimisation
 modified Broyden-mixing scheme, WC =      100.0
 initial mixing is a Kerker type mixing with AMIX =  0.4000 and BMIX =      1.0000
 Hartree-type preconditioning will be used
 using additional bands           49
 reciprocal scheme for non local part
 use partial core corrections
 calculate Harris-corrections to forces 
   (improved forces if not selfconsistent)
 use gradient corrections 
 use of overlap-Matrix (Vanderbilt PP)
 Gauss-broadening in eV      SIGMA  =   0.00


--------------------------------------------------------------------------------------------------------


  energy-cutoff  :      295.45
  volume of cell :    27000.00
      direct lattice vectors                 reciprocal lattice vectors
    30.000000000  0.000000000  0.000000000     0.033333333  0.000000000  0.000000000
     0.000000000 30.000000000  0.000000000     0.000000000  0.033333333  0.000000000
     0.000000000  0.000000000 30.000000000     0.000000000  0.000000000  0.033333333

  length of vectors
    30.000000000 30.000000000 30.000000000     0.033333333  0.033333333  0.033333333


 
 k-points in units of 2pi/SCALE and weight: Gamma-point only                        
   0.00000000  0.00000000  0.00000000       1.000
 
 k-points in reciprocal lattice and weights: Gamma-point only                        
   0.00000000  0.00000000  0.00000000       1.000
 
 position of ions in fractional coordinates (direct lattice) 
   0.43095858  0.26025170  0.35314372
   0.40395107  0.26482726  0.27723612
   0.31714788  0.43743042  0.36944756
   0.27687727  0.29875983  0.22557558
   0.29140321  0.44311284  0.29316143
   0.28405084  0.37090540  0.25977216
   0.28222624  0.30006616  0.30564011
   0.35497143  0.36889189  0.38832055
   0.39637630  0.32865312  0.33008651
   0.29955222  0.30809238  0.38403551
   0.32854898  0.32688679  0.45664446
   0.34887207  0.32229684  0.26256811
   0.37948727  0.29316321  0.40496280
   0.32519295  0.24479824  0.26104413
   0.34860571  0.26165480  0.33633200
   0.35028492  0.39101468  0.30830235
   0.28175658  0.38129996  0.42011634
   0.27622831  0.37438631  0.34010240
 
 position of ions in cartesian coordinates  (Angst):
  12.92875726  7.80755094 10.59431165
  12.11853211  7.94481768  8.31708355
   9.51443653 13.12291253 11.08342672
   8.30631818  8.96279481  6.76726745
   8.74209622 13.29338525  8.79484279
   8.52152522 11.12716205  7.79316492
   8.46678735  9.00198492  9.16920344
  10.64914294 11.06675667 11.64961654
  11.89128907  9.85959351  9.90259517
   8.98656652  9.24277143 11.52106537
   9.85646936  9.80660367 13.69933374
  10.46616206  9.66890532  7.87704316
  11.38461819  8.79489638 12.14888411
   9.75578838  7.34394724  7.83132401
  10.45817135  7.84964410 10.08995995
  10.50854772 11.73044051  9.24907048
   8.45269749 11.43899893 12.60349022
   8.28684932 11.23158933 10.20307202
 


--------------------------------------------------------------------------------------------------------


 use parallel FFT for wavefunctions z direction half grid
 k-point  1 :   0.0000 0.0000 0.0000  plane waves:  155509

 maximum and minimum number of plane-waves per node :     25930    25903

 maximum number of plane-waves:    155509
 maximum index in each direction: 
   IXMAX=   42   IYMAX=   42   IZMAX=   42
   IXMIN=  -42   IYMIN=  -42   IZMIN=    0

 WARNING: aliasing errors must be expected set NGX to 170 to avoid them
 WARNING: aliasing errors must be expected set NGY to 170 to avoid them
 WARNING: aliasing errors must be expected set NGZ to 170 to avoid them
 aliasing errors are usually negligible using standard VASP settings
 and one can safely disregard these warnings

 parallel 3D FFT for wavefunctions:
    minimum data exchange during FFTs selected (reduces bandwidth)
 parallel 3D FFT for charge:
    minimum data exchange during FFTs selected (reduces bandwidth)


 total amount of memory used by VASP on root node   179897. kBytes
========================================================================

   base      :      30000. kBytes
   nonl-proj :      11190. kBytes
   fftplans  :      30597. kBytes
   grid      :      77361. kBytes
   one-center:         46. kBytes
   wavefun   :      30703. kBytes
 
     INWAV:  cpu time    0.0000: real time    0.0000
 Broyden mixing: mesh for mixing (old mesh)
   NGX = 85   NGY = 85   NGZ = 85
  (NGX  =252   NGY  =252   NGZ  =252)
  gives a total of 614125 points

 initial charge density was supplied:
 charge density of overlapping atoms calculated
 number of electron     198.0000000 magnetization      54.0000000
 keeping initial charge density in first step


--------------------------------------------------------------------------------------------------------


 Maximum index for augmentation-charges          200 (set IRDMAX)


--------------------------------------------------------------------------------------------------------


 First call to EWALD:  gamma=   0.059
 Maximum number of real-space cells 3x 3x 3
 Maximum number of reciprocal cells 3x 3x 3

 FEWALD executed in parallel
    FEWALD:  cpu time    0.0023: real time    0.0023


----------------------------------------- Iteration    1(   1)  ---------------------------------------


    POTLOK:  cpu time    1.3896: real time    1.3906
    SETDIJ:  cpu time    0.0165: real time    0.0165
     EDDAV:  cpu time   19.3949: real time   19.4159
       DOS:  cpu time    0.0001: real time    0.0001
    --------------------------------------------
      LOOP:  cpu time   20.8049: real time   20.8467

 eigenvalue-minimisations  :   624
 total energy-change (2. order) : 0.1282646E+04  (-0.2695503E+04)
 number of electron     198.0000000 magnetization      54.0000000
 augmentation part      198.0000000 magnetization      54.0000000

 Free energy of the ion-electron system (eV)
  ---------------------------------------------------
  alpha Z        PSCENC =         8.77593644
  Ewald energy   TEWEN  =     48726.42453295
  -Hartree energ DENC   =    -71486.42088752
  -exchange      EXHF   =         0.00000000
  -V(xc)+E(xc)   XCENC  =       827.39579511
  PAW double counting   =     22089.90923645   -23992.12578342
  entropy T*S    EENTRO =         0.00000000
  eigenvalues    EBANDS =        71.84628591
  atomic energy  EATOM  =     25036.84052384
  Solvation  Ediel_sol  =         0.00000000
  ---------------------------------------------------
  free energy    TOTEN  =      1282.64563976 eV

  energy without entropy =     1282.64563976  energy(sigma->0) =     1282.64563976


--------------------------------------------------------------------------------------------------------




----------------------------------------- Iteration    1(   2)  ---------------------------------------


     EDDAV:  cpu time   26.3403: real time   26.4024
       DOS:  cpu time    0.0001: real time    0.0001
    --------------------------------------------
      LOOP:  cpu time   26.3431: real time   26.4079

 eigenvalue-minimisations  :   904
 total energy-change (2. order) :-0.9162871E+03  (-0.7901425E+03)
 number of electron     198.0000000 magnetization      54.0000000
 augmentation part      198.0000000 magnetization      54.0000000

 Free energy of the ion-electron system (eV)
  ---------------------------------------------------
  alpha Z        PSCENC =         8.77593644
  Ewald energy   TEWEN  =     48726.42453295
  -Hartree energ DENC   =    -71486.42088752
  -exchange      EXHF   =         0.00000000
  -V(xc)+E(xc)   XCENC  =       827.39579511
  PAW double counting   =     22089.90923645   -23992.12578342
  entropy T*S    EENTRO =         0.00000000
  eigenvalues    EBANDS =      -844.44078192
  atomic energy  EATOM  =     25036.84052384
  Solvation  Ediel_sol  =         0.00000000
  ---------------------------------------------------
  free energy    TOTEN  =       366.35857194 eV

  energy without entropy =      366.35857194  energy(sigma->0) =      366.35857194


--------------------------------------------------------------------------------------------------------




----------------------------------------- Iteration    1(   3)  ---------------------------------------


     EDDAV:  cpu time   23.4954: real time   23.5199
       DOS:  cpu time    0.0001: real time    0.0001
    --------------------------------------------
      LOOP:  cpu time   23.4984: real time   23.5257

 eigenvalue-minimisations  :   776
 total energy-change (2. order) :-0.3486073E+03  (-0.3279921E+03)
 number of electron     198.0000000 magnetization      54.0000000
 augmentation part      198.0000000 magnetization      54.0000000

 Free energy of the ion-electron system (eV)
  ---------------------------------------------------
  alpha Z        PSCENC =         8.77593644
  Ewald energy   TEWEN  =     48726.42453295
  -Hartree energ DENC   =    -71486.42088752
  -exchange      EXHF   =         0.00000000
  -V(xc)+E(xc)   XCENC  =       827.39579511
  PAW double counting   =     22089.90923645   -23992.12578342
  entropy T*S    EENTRO =         0.00000000
  eigenvalues    EBANDS =     -1193.04803363
  atomic energy  EATOM  =     25036.84052384
  Solvation  Ediel_sol  =         0.00000000
  ---------------------------------------------------
  free energy    TOTEN  =        17.75132023 eV

  energy without entropy =       17.75132023  energy(sigma->0) =       17.75132023


--------------------------------------------------------------------------------------------------------




----------------------------------------- Iteration    1(   4)  ---------------------------------------


     EDDAV:  cpu time   24.7135: real time   25.2505
       DOS:  cpu time    0.0001: real time    0.0001
    --------------------------------------------
      LOOP:  cpu time   24.7160: real time   25.2558

 eigenvalue-minimisations  :   832
 total energy-change (2. order) :-0.4663214E+02  (-0.4234026E+02)
 number of electron     198.0000000 magnetization      54.0000000
 augmentation part      198.0000000 magnetization      54.0000000

 Free energy of the ion-electron system (eV)
  ---------------------------------------------------
  alpha Z        PSCENC =         8.77593644
  Ewald energy   TEWEN  =     48726.42453295
  -Hartree energ DENC   =    -71486.42088752
  -exchange      EXHF   =         0.00000000
  -V(xc)+E(xc)   XCENC  =       827.39579511
  PAW double counting   =     22089.90923645   -23992.12578342
  entropy T*S    EENTRO =        -0.00000000
  eigenvalues    EBANDS =     -1239.68017687
  atomic energy  EATOM  =     25036.84052384
  Solvation  Ediel_sol  =         0.00000000
  ---------------------------------------------------
  free energy    TOTEN  =       -28.88082302 eV

  energy without entropy =      -28.88082302  energy(sigma->0) =      -28.88082302


--------------------------------------------------------------------------------------------------------




----------------------------------------- Iteration    1(   5)  ---------------------------------------


     EDDAV:  cpu time   24.0148: real time   24.0756
       DOS:  cpu time    0.0001: real time    0.0001
    CHARGE:  cpu time    0.7470: real time    0.7476
    MIXING:  cpu time    0.0273: real time    0.0275
    --------------------------------------------
      LOOP:  cpu time   24.7919: real time   24.8561

 eigenvalue-minimisations  :   800
 total energy-change (2. order) :-0.2644769E+01  (-0.2360788E+01)
 number of electron     197.9999970 magnetization      51.1761461
 augmentation part      116.8164059 magnetization      48.4914613

 Broyden mixing:
  rms(total) = 0.74375E+01    rms(broyden)= 0.74361E+01
  rms(prec ) = 0.74840E+01
  weight for this iteration     100.00

 Free energy of the ion-electron system (eV)
  ---------------------------------------------------
  alpha Z        PSCENC =         8.77593644
  Ewald energy   TEWEN  =     48726.42453295
  -Hartree energ DENC   =    -71486.42088752
  -exchange      EXHF   =         0.00000000
  -V(xc)+E(xc)   XCENC  =       827.39579511
  PAW double counting   =     22089.90923645   -23992.12578342
  entropy T*S    EENTRO =        -0.00000000
  eigenvalues    EBANDS =     -1242.32494573
  atomic energy  EATOM  =     25036.84052384
  Solvation  Ediel_sol  =         0.00000000
  ---------------------------------------------------
  free energy    TOTEN  =       -31.52559187 eV

  energy without entropy =      -31.52559187  energy(sigma->0) =      -31.52559187


--------------------------------------------------------------------------------------------------------




----------------------------------------- Iteration    1(   6)  ---------------------------------------


    POTLOK:  cpu time    1.3914: real time    1.3927
    SETDIJ:  cpu time    0.0163: real time    0.0163
     EDDAV:  cpu time   20.0882: real time   20.1093
       DOS:  cpu time    0.0001: real time    0.0001
    CHARGE:  cpu time    0.7292: real time    0.7299
    MIXING:  cpu time    0.0303: real time    0.0303
    --------------------------------------------
      LOOP:  cpu time   22.2586: real time   22.2843

 eigenvalue-minimisations  :   640
 total energy-change (2. order) : 0.1384844E+03  (-0.8813952E+02)
 number of electron     197.9999948 magnetization      49.0931604
 augmentation part      136.5495965 magnetization      32.6515776

 Broyden mixing:
  rms(total) = 0.34824E+01    rms(broyden)= 0.34804E+01
  rms(prec ) = 0.35612E+01
  weight for this iteration     100.00

 eigenvalues of (default mixing * dielectric matrix)
  average eigenvalue GAMMA=   0.9412
  0.9412

 Free energy of the ion-electron system (eV)
  ---------------------------------------------------
  alpha Z        PSCENC =         8.77593644
  Ewald energy   TEWEN  =     48726.42453295
  -Hartree energ DENC   =    -70953.02796743
  -exchange      EXHF   =         0.00000000
  -V(xc)+E(xc)   XCENC  =       904.24534204
  PAW double counting   =     22107.68343529   -23915.21186636
  entropy T*S    EENTRO =         0.00000000
  eigenvalues    EBANDS =     -1808.77112127
  atomic energy  EATOM  =     25036.84052384
  Solvation  Ediel_sol  =         0.00000000
  ---------------------------------------------------
  free energy    TOTEN  =       106.95881550 eV

  energy without entropy =      106.95881550  energy(sigma->0) =      106.95881550


--------------------------------------------------------------------------------------------------------




----------------------------------------- Iteration    1(   7)  ---------------------------------------


    POTLOK:  cpu time    1.3770: real time    1.3781
    SETDIJ:  cpu time    0.0162: real time    0.0162
     EDDAV:  cpu time   22.8903: real time   22.9539
       DOS:  cpu time    0.0001: real time    0.0001
    CHARGE:  cpu time    0.7431: real time    0.7437
    MIXING:  cpu time    0.0319: real time    0.0319
    --------------------------------------------
      LOOP:  cpu time   25.0621: real time   25.1303

 eigenvalue-minimisations  :   756
 total energy-change (2. order) :-0.1098090E+02  (-0.3424229E+02)
 number of electron     197.9999954 magnetization      46.3975305
 augmentation part      128.1726781 magnetization      29.3196134

 Broyden mixing:
  rms(total) = 0.15540E+01    rms(broyden)= 0.15531E+01
  rms(prec ) = 0.15658E+01
  weight for this iteration     100.00

 eigenvalues of (default mixing * dielectric matrix)
  average eigenvalue GAMMA=   0.8986
  1.1029  0.6943

 Free energy of the ion-electron system (eV)
  ---------------------------------------------------
  alpha Z        PSCENC =         8.77593644
  Ewald energy   TEWEN  =     48726.42453295
  -Hartree energ DENC   =    -71386.87046024
  -exchange      EXHF   =         0.00000000
  -V(xc)+E(xc)   XCENC  =       909.79664723
  PAW double counting   =     22772.90420131   -24739.58914363
  entropy T*S    EENTRO =         0.00000000
  eigenvalues    EBANDS =     -1232.30431987
  atomic energy  EATOM  =     25036.84052384
  Solvation  Ediel_sol  =         0.00000000
  ---------------------------------------------------
  free energy    TOTEN  =        95.97791804 eV

  energy without entropy =       95.97791804  energy(sigma->0) =       95.97791804


--------------------------------------------------------------------------------------------------------




----------------------------------------- Iteration    1(   8)  ---------------------------------------


    POTLOK:  cpu time    1.3797: real time    1.3840
    SETDIJ:  cpu time    0.0158: real time    0.0158
     EDDAV:  cpu time   22.4804: real time   22.5048
       DOS:  cpu time    0.0002: real time    0.0002
    CHARGE:  cpu time    0.7338: real time    0.7343
    MIXING:  cpu time    0.0408: real time    0.0409
    --------------------------------------------
      LOOP:  cpu time   24.6546: real time   24.6864

 eigenvalue-minimisations  :   740
 total energy-change (2. order) : 0.1117809E+02  (-0.4036163E+01)
 number of electron     197.9999956 magnetization      44.4796517
 augmentation part      126.6846640 magnetization      26.7587823

 Broyden mixing:
  rms(total) = 0.12845E+01    rms(broyden)= 0.12842E+01
  rms(prec ) = 0.13001E+01
  weight for this iteration     100.00

 eigenvalues of (default mixing * dielectric matrix)
  average eigenvalue GAMMA=   0.8729
  1.2404  0.6892  0.6892

 Free energy of the ion-electron system (eV)
  ---------------------------------------------------
  alpha Z        PSCENC =         8.77593644
  Ewald energy   TEWEN  =     48726.42453295
  -Hartree energ DENC   =    -71468.88525207
  -exchange      EXHF   =         0.00000000
  -V(xc)+E(xc)   XCENC  =       919.11552037
  PAW double counting   =     23213.33635787   -25186.48156939
  entropy T*S    EENTRO =         0.00000000
  eigenvalues    EBANDS =     -1141.97003782
  atomic energy  EATOM  =     25036.84052384
  Solvation  Ediel_sol  =         0.00000000
  ---------------------------------------------------
  free energy    TOTEN  =       107.15601220 eV

  energy without entropy =      107.15601220  energy(sigma->0) =      107.15601220


--------------------------------------------------------------------------------------------------------




----------------------------------------- Iteration    1(   9)  ---------------------------------------


    POTLOK:  cpu time    1.3875: real time    1.3883
    SETDIJ:  cpu time    0.0167: real time    0.0167
     EDDAV:  cpu time   24.5319: real time   24.5568
       DOS:  cpu time    0.0001: real time    0.0001
    CHARGE:  cpu time    0.7342: real time    0.7348
    MIXING:  cpu time    0.0383: real time    0.0383
    --------------------------------------------
      LOOP:  cpu time   26.7120: real time   26.7607

 eigenvalue-minimisations  :   824
 total energy-change (2. order) :-0.1469459E+02  (-0.9795069E+00)
 number of electron     197.9999952 magnetization      40.1733108
 augmentation part      127.1070217 magnetization      22.8173721

 Broyden mixing:
  rms(total) = 0.92102E+00    rms(broyden)= 0.92087E+00
  rms(prec ) = 0.92514E+00
  weight for this iteration     100.00

 eigenvalues of (default mixing * dielectric matrix)
  average eigenvalue GAMMA=   0.9781
  1.3302  1.3302  0.6985  0.5534

 Free energy of the ion-electron system (eV)
  ---------------------------------------------------
  alpha Z        PSCENC =         8.77593644
  Ewald energy   TEWEN  =     48726.42453295
  -Hartree energ DENC   =    -71454.33954132
  -exchange      EXHF   =         0.00000000
  -V(xc)+E(xc)   XCENC  =       906.28750463
  PAW double counting   =     23326.43065472   -25287.80008961
  entropy T*S    EENTRO =         0.00000000
  eigenvalues    EBANDS =     -1170.15809981
  atomic energy  EATOM  =     25036.84052384
  Solvation  Ediel_sol  =         0.00000000
  ---------------------------------------------------
  free energy    TOTEN  =        92.46142187 eV

  energy without entropy =       92.46142187  energy(sigma->0) =       92.46142187


--------------------------------------------------------------------------------------------------------




----------------------------------------- Iteration    1(  10)  ---------------------------------------


    POTLOK:  cpu time    1.3782: real time    1.3808
    SETDIJ:  cpu time    0.0162: real time    0.0162
     EDDAV:  cpu time   23.7899: real time   23.8229
       DOS:  cpu time    0.0001: real time    0.0001
    CHARGE:  cpu time    0.7305: real time    0.7311
    MIXING:  cpu time    0.0411: real time    0.0411
    --------------------------------------------
      LOOP:  cpu time   25.9596: real time   25.9987

 eigenvalue-minimisations  :   792
 total energy-change (2. order) :-0.4161898E+02  (-0.2540507E+01)
 number of electron     197.9999958 magnetization      37.3639098
 augmentation part      128.0936663 magnetization      23.2124229

 Broyden mixing:
  rms(total) = 0.77497E+00    rms(broyden)= 0.77437E+00
  rms(prec ) = 0.78185E+00
  weight for this iteration     100.00

 eigenvalues of (default mixing * dielectric matrix)
  average eigenvalue GAMMA=   1.0429
  1.9951  1.4309  0.6153  0.6153  0.5577

 Free energy of the ion-electron system (eV)
  ---------------------------------------------------
  alpha Z        PSCENC =         8.77593644
  Ewald energy   TEWEN  =     48726.42453295
  -Hartree energ DENC   =    -71425.31783406
  -exchange      EXHF   =         0.00000000
  -V(xc)+E(xc)   XCENC  =       872.67367308
  PAW double counting   =     23417.32462982   -25352.80374848
  entropy T*S    EENTRO =         0.00000000
  eigenvalues    EBANDS =     -1233.07526686
  atomic energy  EATOM  =     25036.84052384
  Solvation  Ediel_sol  =         0.00000000
  ---------------------------------------------------
  free energy    TOTEN  =        50.84244675 eV

  energy without entropy =       50.84244675  energy(sigma->0) =       50.84244675


--------------------------------------------------------------------------------------------------------




----------------------------------------- Iteration    1(  11)  ---------------------------------------


    POTLOK:  cpu time    1.3840: real time    1.3848
    SETDIJ:  cpu time    0.0160: real time    0.0160
     EDDAV:  cpu time   23.2212: real time   23.2462
       DOS:  cpu time    0.0002: real time    0.0002
    CHARGE:  cpu time    0.7406: real time    0.7412
    MIXING:  cpu time    0.0446: real time    0.0446
    --------------------------------------------
      LOOP:  cpu time   25.4103: real time   25.4392

 eigenvalue-minimisations  :   776
 total energy-change (2. order) :-0.1392023E+02  (-0.9367248E+00)
 number of electron     197.9999949 magnetization      34.4668741
 augmentation part      127.9797277 magnetization      22.7194986

 Broyden mixing:
  rms(total) = 0.65513E+00    rms(broyden)= 0.65453E+00
  rms(prec ) = 0.66294E+00
  weight for this iteration     100.00

 eigenvalues of (default mixing * dielectric matrix)
  average eigenvalue GAMMA=   1.0394
  2.5574  1.2859  0.6645  0.6645  0.5975  0.4663

 Free energy of the ion-electron system (eV)
  ---------------------------------------------------
  alpha Z        PSCENC =         8.77593644
  Ewald energy   TEWEN  =     48726.42453295
  -Hartree energ DENC   =    -71442.35635448
  -exchange      EXHF   =         0.00000000
  -V(xc)+E(xc)   XCENC  =       862.83771259
  PAW double counting   =     23472.82673988   -25404.75910029
  entropy T*S    EENTRO =         0.00000000
  eigenvalues    EBANDS =     -1223.66777504
  atomic energy  EATOM  =     25036.84052384
  Solvation  Ediel_sol  =         0.00000000
  ---------------------------------------------------
  free energy    TOTEN  =        36.92221590 eV

  energy without entropy =       36.92221590  energy(sigma->0) =       36.92221590


--------------------------------------------------------------------------------------------------------




----------------------------------------- Iteration    1(  12)  ---------------------------------------


    POTLOK:  cpu time    1.3840: real time    1.3853
    SETDIJ:  cpu time    0.0161: real time    0.0161
     EDDAV:  cpu time   23.5970: real time   23.6334
       DOS:  cpu time    0.0002: real time    0.0002
    CHARGE:  cpu time    0.7352: real time    0.7356
    MIXING:  cpu time    0.0513: real time    0.0513
    --------------------------------------------
      LOOP:  cpu time   25.7876: real time   25.8283

 eigenvalue-minimisations  :   792
 total energy-change (2. order) :-0.1035392E+02  (-0.6678501E+00)
 number of electron     197.9999956 magnetization      28.4100621
 augmentation part      127.4155130 magnetization      17.3383377

 Broyden mixing:
  rms(total) = 0.49137E+00    rms(broyden)= 0.49127E+00
  rms(prec ) = 0.49510E+00
  weight for this iteration     100.00

 eigenvalues of (default mixing * dielectric matrix)
  average eigenvalue GAMMA=   1.2468
  3.7759  1.6342  0.8218  0.8218  0.6252  0.6252  0.4233

 Free energy of the ion-electron system (eV)
  ---------------------------------------------------
  alpha Z        PSCENC =         8.77593644
  Ewald energy   TEWEN  =     48726.42453295
  -Hartree energ DENC   =    -71478.35050106
  -exchange      EXHF   =         0.00000000
  -V(xc)+E(xc)   XCENC  =       855.83246946
  PAW double counting   =     23528.62605653   -25463.22158905
  entropy T*S    EENTRO =         0.00000000
  eigenvalues    EBANDS =     -1188.35913794
  atomic energy  EATOM  =     25036.84052384
  Solvation  Ediel_sol  =         0.00000000
  ---------------------------------------------------
  free energy    TOTEN  =        26.56829117 eV

  energy without entropy =       26.56829117  energy(sigma->0) =       26.56829117


--------------------------------------------------------------------------------------------------------




----------------------------------------- Iteration    1(  13)  ---------------------------------------


    POTLOK:  cpu time    1.3816: real time    1.3824
    SETDIJ:  cpu time    0.0163: real time    0.0163
     EDDAV:  cpu time   24.3627: real time   24.3889
       DOS:  cpu time    0.0002: real time    0.0002
    CHARGE:  cpu time    0.7326: real time    0.7334
    MIXING:  cpu time    0.0555: real time    0.0555
    --------------------------------------------
      LOOP:  cpu time   26.5524: real time   26.5830

 eigenvalue-minimisations  :   824
 total energy-change (2. order) :-0.3271467E+02  (-0.2533402E+01)
 number of electron     197.9999951 magnetization      24.7163323
 augmentation part      126.8607814 magnetization      18.4846534

 Broyden mixing:
  rms(total) = 0.47247E+00    rms(broyden)= 0.47132E+00
  rms(prec ) = 0.48171E+00
  weight for this iteration     100.00

 eigenvalues of (default mixing * dielectric matrix)
  average eigenvalue GAMMA=   1.2436
  4.4469  1.6470  0.9969  0.7397  0.7397  0.5483  0.4149  0.4149

 Free energy of the ion-electron system (eV)
  ---------------------------------------------------
  alpha Z        PSCENC =         8.77593644
  Ewald energy   TEWEN  =     48726.42453295
  -Hartree energ DENC   =    -71501.65588775
  -exchange      EXHF   =         0.00000000
  -V(xc)+E(xc)   XCENC  =       830.89814392
  PAW double counting   =     23466.35631009   -25400.38342497
  entropy T*S    EENTRO =         0.00000000
  eigenvalues    EBANDS =     -1173.40251053
  atomic energy  EATOM  =     25036.84052384
  Solvation  Ediel_sol  =         0.00000000
  ---------------------------------------------------
  free energy    TOTEN  =        -6.14637599 eV

  energy without entropy =       -6.14637599  energy(sigma->0) =       -6.14637599


--------------------------------------------------------------------------------------------------------




----------------------------------------- Iteration    1(  14)  ---------------------------------------


    POTLOK:  cpu time    1.3843: real time    1.3856
    SETDIJ:  cpu time    0.0160: real time    0.0160
     EDDAV:  cpu time   25.5669: real time   25.6335
       DOS:  cpu time    0.0002: real time    0.0002
    CHARGE:  cpu time    0.7420: real time    0.7424
    MIXING:  cpu time    0.0593: real time    0.0596
    --------------------------------------------
      LOOP:  cpu time   27.7726: real time   27.8438

 eigenvalue-minimisations  :   876
 total energy-change (2. order) :-0.1084540E+02  (-0.9914023E+00)
 number of electron     197.9999952 magnetization      21.2551892
 augmentation part      126.5569429 magnetization      19.2119198

 Broyden mixing:
  rms(total) = 0.46731E+00    rms(broyden)= 0.46630E+00
  rms(prec ) = 0.47265E+00
  weight for this iteration     100.00

 eigenvalues of (default mixing * dielectric matrix)
  average eigenvalue GAMMA=   1.2595
  5.2900  1.6581  1.1504  0.7127  0.7127  0.5565  0.4056  0.4247  0.4247

 Free energy of the ion-electron system (eV)
  ---------------------------------------------------
  alpha Z        PSCENC =         8.77593644
  Ewald energy   TEWEN  =     48726.42453295
  -Hartree energ DENC   =    -71519.49704235
  -exchange      EXHF   =         0.00000000
  -V(xc)+E(xc)   XCENC  =       823.58964254
  PAW double counting   =     23467.75816433   -25401.50963354
  entropy T*S    EENTRO =         0.00000000
  eigenvalues    EBANDS =     -1159.37389524
  atomic energy  EATOM  =     25036.84052384
  Solvation  Ediel_sol  =         0.00000000
  ---------------------------------------------------
  free energy    TOTEN  =       -16.99177103 eV

  energy without entropy =      -16.99177103  energy(sigma->0) =      -16.99177103


--------------------------------------------------------------------------------------------------------




----------------------------------------- Iteration    1(  15)  ---------------------------------------


    POTLOK:  cpu time    1.3843: real time    1.3851
    SETDIJ:  cpu time    0.0160: real time    0.0160
     EDDAV:  cpu time   24.9589: real time   24.9825
       DOS:  cpu time    0.0002: real time    0.0002
    CHARGE:  cpu time    0.7451: real time    0.7456
    MIXING:  cpu time    0.0655: real time    0.0655
    --------------------------------------------
      LOOP:  cpu time   27.1737: real time   27.2014

 eigenvalue-minimisations  :   848
 total energy-change (2. order) :-0.6941342E+01  (-0.5156639E+00)
 number of electron     197.9999952 magnetization      18.4277982
 augmentation part      126.5944703 magnetization      17.0683409

 Broyden mixing:
  rms(total) = 0.32176E+00    rms(broyden)= 0.32163E+00
  rms(prec ) = 0.32834E+00
  weight for this iteration     100.00

 eigenvalues of (default mixing * dielectric matrix)
  average eigenvalue GAMMA=   1.3607
  6.3047  1.9112  0.8194  0.8194  0.8634  0.8634  0.6167  0.4967  0.4967  0.4150

 Free energy of the ion-electron system (eV)
  ---------------------------------------------------
  alpha Z        PSCENC =         8.77593644
  Ewald energy   TEWEN  =     48726.42453295
  -Hartree energ DENC   =    -71530.71850961
  -exchange      EXHF   =         0.00000000
  -V(xc)+E(xc)   XCENC  =       818.91309001
  PAW double counting   =     23472.71407254   -25404.98627760
  entropy T*S    EENTRO =         0.00000000
  eigenvalues    EBANDS =     -1151.89648172
  atomic energy  EATOM  =     25036.84052384
  Solvation  Ediel_sol  =         0.00000000
  ---------------------------------------------------
  free energy    TOTEN  =       -23.93311313 eV

  energy without entropy =      -23.93311313  energy(sigma->0) =      -23.93311313


--------------------------------------------------------------------------------------------------------




----------------------------------------- Iteration    1(  16)  ---------------------------------------


    POTLOK:  cpu time    1.3844: real time    1.3872
    SETDIJ:  cpu time    0.0163: real time    0.0163
     EDDAV:  cpu time   25.3670: real time   25.7203
       DOS:  cpu time    0.0002: real time    0.0002
    CHARGE:  cpu time    0.7423: real time    0.7429
    MIXING:  cpu time    0.0821: real time    0.1112
    --------------------------------------------
      LOOP:  cpu time   27.5960: real time   27.9844

 eigenvalue-minimisations  :   864
 total energy-change (2. order) :-0.7854602E+01  (-0.5438081E+00)
 number of electron     197.9999953 magnetization      16.2302777
 augmentation part      126.7406573 magnetization      15.5209197

 Broyden mixing:
  rms(total) = 0.25519E+00    rms(broyden)= 0.25513E+00
  rms(prec ) = 0.26052E+00
  weight for this iteration     100.00

 eigenvalues of (default mixing * dielectric matrix)
  average eigenvalue GAMMA=   1.4464
  7.1893  2.2717  1.1988  1.1988  0.7520  0.7520  0.5002  0.5002  0.5976  0.5378
  0.4120

 Free energy of the ion-electron system (eV)
  ---------------------------------------------------
  alpha Z        PSCENC =         8.77593644
  Ewald energy   TEWEN  =     48726.42453295
  -Hartree energ DENC   =    -71519.26682557
  -exchange      EXHF   =         0.00000000
  -V(xc)+E(xc)   XCENC  =       812.68816529
  PAW double counting   =     23412.75608570   -25342.40948313
  entropy T*S    EENTRO =         0.00000000
  eigenvalues    EBANDS =     -1167.59665081
  atomic energy  EATOM  =     25036.84052384
  Solvation  Ediel_sol  =         0.00000000
  ---------------------------------------------------
  free energy    TOTEN  =       -31.78771530 eV

  energy without entropy =      -31.78771530  energy(sigma->0) =      -31.78771530


--------------------------------------------------------------------------------------------------------




----------------------------------------- Iteration    1(  17)  ---------------------------------------


    POTLOK:  cpu time    1.3834: real time    1.3845
    SETDIJ:  cpu time    0.0161: real time    0.0161
     EDDAV:  cpu time   24.5991: real time   24.6252
       DOS:  cpu time    0.0002: real time    0.0002
    CHARGE:  cpu time    0.7477: real time    0.7483
    MIXING:  cpu time    0.0809: real time    0.0809
    --------------------------------------------
      LOOP:  cpu time   26.8311: real time   26.8619

 eigenvalue-minimisations  :   832
 total energy-change (2. order) :-0.5439401E+01  (-0.2103945E+00)
 number of electron     197.9999952 magnetization      12.8802853
 augmentation part      126.9228930 magnetization      12.5300501

 Broyden mixing:
  rms(total) = 0.18840E+00    rms(broyden)= 0.18835E+00
  rms(prec ) = 0.19134E+00
  weight for this iteration     100.00

 eigenvalues of (default mixing * dielectric matrix)
  average eigenvalue GAMMA=   1.5101
  8.3322  2.5769  1.1874  1.1874  0.7899  0.7899  0.6611  0.6611  0.5285  0.5285
  0.4723  0.4065

 Free energy of the ion-electron system (eV)
  ---------------------------------------------------
  alpha Z        PSCENC =         8.77593644
  Ewald energy   TEWEN  =     48726.42453295
  -Hartree energ DENC   =    -71499.12586713
  -exchange      EXHF   =         0.00000000
  -V(xc)+E(xc)   XCENC  =       807.72249110
  PAW double counting   =     23340.41031515   -25268.32389550
  entropy T*S    EENTRO =         0.00000000
  eigenvalues    EBANDS =     -1189.95115299
  atomic energy  EATOM  =     25036.84052384
  Solvation  Ediel_sol  =         0.00000000
  ---------------------------------------------------
  free energy    TOTEN  =       -37.22711614 eV

  energy without entropy =      -37.22711614  energy(sigma->0) =      -37.22711614


--------------------------------------------------------------------------------------------------------




----------------------------------------- Iteration    1(  18)  ---------------------------------------


    POTLOK:  cpu time    1.3898: real time    1.3907
    SETDIJ:  cpu time    0.0169: real time    0.0169
     EDDAV:  cpu time   24.7844: real time   24.8094
       DOS:  cpu time    0.0001: real time    0.0001
    CHARGE:  cpu time    0.7234: real time    0.7257
    MIXING:  cpu time    0.0876: real time    0.0876
    --------------------------------------------
      LOOP:  cpu time   27.0055: real time   27.0363

 eigenvalue-minimisations  :   840
 total energy-change (2. order) :-0.4461317E+01  (-0.1338483E+00)
 number of electron     197.9999953 magnetization      10.9294617
 augmentation part      126.9812072 magnetization      10.8682280

 Broyden mixing:
  rms(total) = 0.14464E+00    rms(broyden)= 0.14462E+00
  rms(prec ) = 0.14700E+00
  weight for this iteration     100.00

 eigenvalues of (default mixing * dielectric matrix)
  average eigenvalue GAMMA=   1.5641
  8.7605  2.6069  1.8421  1.2670  1.2670  0.7179  0.7179  0.7241  0.5146  0.5146
  0.5585  0.4403  0.4024

 Free energy of the ion-electron system (eV)
  ---------------------------------------------------
  alpha Z        PSCENC =         8.77593644
  Ewald energy   TEWEN  =     48726.42453295
  -Hartree energ DENC   =    -71489.83426314
  -exchange      EXHF   =         0.00000000
  -V(xc)+E(xc)   XCENC  =       803.68734035
  PAW double counting   =     23300.76449398   -25229.45502115
  entropy T*S    EENTRO =         0.00000000
  eigenvalues    EBANDS =     -1198.89197676
  atomic energy  EATOM  =     25036.84052384
  Solvation  Ediel_sol  =         0.00000000
  ---------------------------------------------------
  free energy    TOTEN  =       -41.68843348 eV

  energy without entropy =      -41.68843348  energy(sigma->0) =      -41.68843348


--------------------------------------------------------------------------------------------------------




----------------------------------------- Iteration    1(  19)  ---------------------------------------


    POTLOK:  cpu time    1.3811: real time    1.3820
    SETDIJ:  cpu time    0.0162: real time    0.0162
     EDDAV:  cpu time   23.8382: real time   23.8729
       DOS:  cpu time    0.0002: real time    0.0002
    CHARGE:  cpu time    0.7433: real time    0.7438
    MIXING:  cpu time    0.0917: real time    0.0917
    --------------------------------------------
      LOOP:  cpu time   26.0744: real time   26.1133

 eigenvalue-minimisations  :   800
 total energy-change (2. order) :-0.1996781E+01  (-0.3714782E-01)
 number of electron     197.9999952 magnetization       8.9623818
 augmentation part      126.7858538 magnetization       8.8839386

 Broyden mixing:
  rms(total) = 0.11857E+00    rms(broyden)= 0.11856E+00
  rms(prec ) = 0.12187E+00
  weight for this iteration     100.00

 eigenvalues of (default mixing * dielectric matrix)
  average eigenvalue GAMMA=   1.6210
  9.5717  3.4978  1.4383  1.4383  1.0954  1.0954  0.7017  0.7017  0.5149  0.5149
  0.6752  0.6161  0.4052  0.4279

 Free energy of the ion-electron system (eV)
  ---------------------------------------------------
  alpha Z        PSCENC =         8.77593644
  Ewald energy   TEWEN  =     48726.42453295
  -Hartree energ DENC   =    -71486.73650054
  -exchange      EXHF   =         0.00000000
  -V(xc)+E(xc)   XCENC  =       802.06696845
  PAW double counting   =     23305.33829935   -25237.19545848
  entropy T*S    EENTRO =         0.00000000
  eigenvalues    EBANDS =     -1199.19951639
  atomic energy  EATOM  =     25036.84052384
  Solvation  Ediel_sol  =         0.00000000
  ---------------------------------------------------
  free energy    TOTEN  =       -43.68521438 eV

  energy without entropy =      -43.68521438  energy(sigma->0) =      -43.68521438


--------------------------------------------------------------------------------------------------------




----------------------------------------- Iteration    1(  20)  ---------------------------------------


    POTLOK:  cpu time    1.3882: real time    1.3894
    SETDIJ:  cpu time    0.0164: real time    0.0164
     EDDAV:  cpu time   25.3721: real time   25.3989
       DOS:  cpu time    0.0002: real time    0.0002
    CHARGE:  cpu time    0.7432: real time    0.7439
    MIXING:  cpu time    0.0993: real time    0.0994
    --------------------------------------------
      LOOP:  cpu time   27.6229: real time   27.6539

 eigenvalue-minimisations  :   864
 total energy-change (2. order) :-0.1467954E+01  (-0.2046437E-01)
 number of electron     197.9999952 magnetization       7.1724615
 augmentation part      126.8939973 magnetization       7.1553227

 Broyden mixing:
  rms(total) = 0.79606E-01    rms(broyden)= 0.79591E-01
  rms(prec ) = 0.81435E-01
  weight for this iteration     100.00

 eigenvalues of (default mixing * dielectric matrix)
  average eigenvalue GAMMA=   1.6793
 10.1957  4.1360  1.7122  1.5981  1.2029  1.2029  0.7710  0.7019  0.7019  0.5140
  0.5140  0.6021  0.4980  0.4330  0.4053

 Free energy of the ion-electron system (eV)
  ---------------------------------------------------
  alpha Z        PSCENC =         8.77593644
  Ewald energy   TEWEN  =     48726.42453295
  -Hartree energ DENC   =    -71466.45775517
  -exchange      EXHF   =         0.00000000
  -V(xc)+E(xc)   XCENC  =       800.31752432
  PAW double counting   =     23273.25486386   -25204.33621848
  entropy T*S    EENTRO =         0.00000000
  eigenvalues    EBANDS =     -1219.97257567
  atomic energy  EATOM  =     25036.84052384
  Solvation  Ediel_sol  =         0.00000000
  ---------------------------------------------------
  free energy    TOTEN  =       -45.15316791 eV

  energy without entropy =      -45.15316791  energy(sigma->0) =      -45.15316791


--------------------------------------------------------------------------------------------------------




----------------------------------------- Iteration    1(  21)  ---------------------------------------


    POTLOK:  cpu time    1.3852: real time    1.3863
    SETDIJ:  cpu time    0.0163: real time    0.0163
     EDDAV:  cpu time   23.8418: real time   23.8754
       DOS:  cpu time    0.0002: real time    0.0002
    CHARGE:  cpu time    0.7295: real time    0.7311
    MIXING:  cpu time    0.1177: real time    0.1177
    --------------------------------------------
      LOOP:  cpu time   26.0943: real time   26.1333

 eigenvalue-minimisations  :   800
 total energy-change (2. order) :-0.1104568E+01  (-0.1127334E-01)
 number of electron     197.9999952 magnetization       5.9293831
 augmentation part      127.0202871 magnetization       5.9262070

 Broyden mixing:
  rms(total) = 0.67086E-01    rms(broyden)= 0.67075E-01
  rms(prec ) = 0.68464E-01
  weight for this iteration     100.00

 eigenvalues of (default mixing * dielectric matrix)
  average eigenvalue GAMMA=   1.7083
 10.6413  4.4503  2.4085  1.3477  1.3477  0.9962  0.9213  0.9213  0.6816  0.6816
  0.5161  0.5161  0.5880  0.4776  0.4324  0.4050

 Free energy of the ion-electron system (eV)
  ---------------------------------------------------
  alpha Z        PSCENC =         8.77593644
  Ewald energy   TEWEN  =     48726.42453295
  -Hartree energ DENC   =    -71448.46373822
  -exchange      EXHF   =         0.00000000
  -V(xc)+E(xc)   XCENC  =       798.93348495
  PAW double counting   =     23260.43588858   -25190.60183752
  entropy T*S    EENTRO =         0.00000000
  eigenvalues    EBANDS =     -1238.60252679
  atomic energy  EATOM  =     25036.84052384
  Solvation  Ediel_sol  =         0.00000000
  ---------------------------------------------------
  free energy    TOTEN  =       -46.25773577 eV

  energy without entropy =      -46.25773577  energy(sigma->0) =      -46.25773577


--------------------------------------------------------------------------------------------------------




----------------------------------------- Iteration    1(  22)  ---------------------------------------


    POTLOK:  cpu time    1.3895: real time    1.3909
    SETDIJ:  cpu time    0.0169: real time    0.0169
     EDDAV:  cpu time   25.1844: real time   25.2089
       DOS:  cpu time    0.0002: real time    0.0002
    CHARGE:  cpu time    0.7345: real time    0.7351
    MIXING:  cpu time    0.1191: real time    0.1191
    --------------------------------------------
      LOOP:  cpu time   27.4483: real time   27.4775

 eigenvalue-minimisations  :   856
 total energy-change (2. order) :-0.5411419E+00  (-0.2591308E-02)
 number of electron     197.9999952 magnetization       4.3062751
 augmentation part      126.9696569 magnetization       4.2667748

 Broyden mixing:
  rms(total) = 0.47178E-01    rms(broyden)= 0.47174E-01
  rms(prec ) = 0.47871E-01
  weight for this iteration     100.00

 eigenvalues of (default mixing * dielectric matrix)
  average eigenvalue GAMMA=   1.7620
 11.2368  4.6689  2.6741  2.0532  1.2286  1.2286  0.9635  0.9635  0.6905  0.6905
  0.5149  0.5149  0.6375  0.5823  0.4055  0.4296  0.4707

 Free energy of the ion-electron system (eV)
  ---------------------------------------------------
  alpha Z        PSCENC =         8.77593644
  Ewald energy   TEWEN  =     48726.42453295
  -Hartree energ DENC   =    -71444.79689129
  -exchange      EXHF   =         0.00000000
  -V(xc)+E(xc)   XCENC  =       798.45150857
  PAW double counting   =     23278.07587324   -25208.97216047
  entropy T*S    EENTRO =         0.00000000
  eigenvalues    EBANDS =     -1241.59820093
  atomic energy  EATOM  =     25036.84052384
  Solvation  Ediel_sol  =         0.00000000
  ---------------------------------------------------
  free energy    TOTEN  =       -46.79887764 eV

  energy without entropy =      -46.79887764  energy(sigma->0) =      -46.79887764


--------------------------------------------------------------------------------------------------------




----------------------------------------- Iteration    1(  23)  ---------------------------------------


    POTLOK:  cpu time    1.3859: real time    1.3872
    SETDIJ:  cpu time    0.0163: real time    0.0163
     EDDAV:  cpu time   24.4947: real time   24.5522
       DOS:  cpu time    0.0002: real time    0.0002
    CHARGE:  cpu time    0.7416: real time    0.7422
    MIXING:  cpu time    0.1242: real time    0.1242
    --------------------------------------------
      LOOP:  cpu time   26.7666: real time   26.8286

 eigenvalue-minimisations  :   828
 total energy-change (2. order) :-0.6533156E+00  (-0.2699936E-02)
 number of electron     197.9999952 magnetization       3.3131159
 augmentation part      126.9322588 magnetization       3.3133425

 Broyden mixing:
  rms(total) = 0.36828E-01    rms(broyden)= 0.36824E-01
  rms(prec ) = 0.37405E-01
  weight for this iteration     100.00

 eigenvalues of (default mixing * dielectric matrix)
  average eigenvalue GAMMA=   1.7755
 11.4090  5.3108  3.0817  1.9495  1.2714  1.2714  1.0443  0.8992  0.8992  0.6736
  0.6736  0.5156  0.5156  0.6153  0.5229  0.4050  0.4682  0.4322

 Free energy of the ion-electron system (eV)
  ---------------------------------------------------
  alpha Z        PSCENC =         8.77593644
  Ewald energy   TEWEN  =     48726.42453295
  -Hartree energ DENC   =    -71440.10557041
  -exchange      EXHF   =         0.00000000
  -V(xc)+E(xc)   XCENC  =       797.84440534
  PAW double counting   =     23284.09917301   -25215.27853840
  entropy T*S    EENTRO =         0.00000000
  eigenvalues    EBANDS =     -1246.05265607
  atomic energy  EATOM  =     25036.84052384
  Solvation  Ediel_sol  =         0.00000000
  ---------------------------------------------------
  free energy    TOTEN  =       -47.45219328 eV

  energy without entropy =      -47.45219328  energy(sigma->0) =      -47.45219328


--------------------------------------------------------------------------------------------------------




----------------------------------------- Iteration    1(  24)  ---------------------------------------


    POTLOK:  cpu time    1.3857: real time    1.3868
    SETDIJ:  cpu time    0.0160: real time    0.0160
     EDDAV:  cpu time   21.7334: real time   21.7551
       DOS:  cpu time    0.0002: real time    0.0002
    CHARGE:  cpu time    0.7350: real time    0.7356
    MIXING:  cpu time    0.1331: real time    0.1332
    --------------------------------------------
      LOOP:  cpu time   24.0073: real time   24.0334

 eigenvalue-minimisations  :   712
 total energy-change (2. order) :-0.3656417E+00  (-0.6875948E-03)
 number of electron     197.9999952 magnetization       2.3338460
 augmentation part      126.9169687 magnetization       2.3354646

 Broyden mixing:
  rms(total) = 0.27868E-01    rms(broyden)= 0.27866E-01
  rms(prec ) = 0.28320E-01
  weight for this iteration     100.00

 eigenvalues of (default mixing * dielectric matrix)
  average eigenvalue GAMMA=   1.8189
 11.6282  6.1508  3.2258  1.8945  1.8945  1.1664  1.1664  0.9884  0.9884  0.6841
  0.6841  0.6270  0.6270  0.5152  0.5152  0.5005  0.4051  0.4662  0.4308

 Free energy of the ion-electron system (eV)
  ---------------------------------------------------
  alpha Z        PSCENC =         8.77593644
  Ewald energy   TEWEN  =     48726.42453295
  -Hartree energ DENC   =    -71436.66690461
  -exchange      EXHF   =         0.00000000
  -V(xc)+E(xc)   XCENC  =       797.47585384
  PAW double counting   =     23289.22963466   -25220.59062965
  entropy T*S    EENTRO =         0.00000000
  eigenvalues    EBANDS =     -1249.30678246
  atomic energy  EATOM  =     25036.84052384
  Solvation  Ediel_sol  =         0.00000000
  ---------------------------------------------------
  free energy    TOTEN  =       -47.81783497 eV

  energy without entropy =      -47.81783497  energy(sigma->0) =      -47.81783497


--------------------------------------------------------------------------------------------------------




----------------------------------------- Iteration    1(  25)  ---------------------------------------


    POTLOK:  cpu time    1.3841: real time    1.3864
    SETDIJ:  cpu time    0.0162: real time    0.0162
     EDDAV:  cpu time   24.2282: real time   24.2514
       DOS:  cpu time    0.0001: real time    0.0001
    CHARGE:  cpu time    0.7430: real time    0.7431
    MIXING:  cpu time    0.1422: real time    0.1426
    --------------------------------------------
      LOOP:  cpu time   26.5175: real time   26.5461

 eigenvalue-minimisations  :   816
 total energy-change (2. order) :-0.3540080E+00  (-0.5238280E-03)
 number of electron     197.9999952 magnetization       1.5421062
 augmentation part      126.9348679 magnetization       1.5319008

 Broyden mixing:
  rms(total) = 0.20458E-01    rms(broyden)= 0.20456E-01
  rms(prec ) = 0.20826E-01
  weight for this iteration     100.00

 eigenvalues of (default mixing * dielectric matrix)
  average eigenvalue GAMMA=   1.8738
 12.0697  6.8557  3.5946  2.5275  1.6857  1.2082  1.2082  1.1831  0.8636  0.8636
  0.6688  0.6688  0.6728  0.5149  0.5149  0.5559  0.5237  0.4052  0.4609  0.4310

 Free energy of the ion-electron system (eV)
  ---------------------------------------------------
  alpha Z        PSCENC =         8.77593644
  Ewald energy   TEWEN  =     48726.42453295
  -Hartree energ DENC   =    -71432.56228228
  -exchange      EXHF   =         0.00000000
  -V(xc)+E(xc)   XCENC  =       797.05460800
  PAW double counting   =     23292.11484539   -25223.26147266
  entropy T*S    EENTRO =         0.00000000
  eigenvalues    EBANDS =     -1253.55853470
  atomic energy  EATOM  =     25036.84052384
  Solvation  Ediel_sol  =         0.00000000
  ---------------------------------------------------
  free energy    TOTEN  =       -48.17184302 eV

  energy without entropy =      -48.17184302  energy(sigma->0) =      -48.17184302


--------------------------------------------------------------------------------------------------------




----------------------------------------- Iteration    1(  26)  ---------------------------------------


    POTLOK:  cpu time    1.3851: real time    1.3858
    SETDIJ:  cpu time    0.0162: real time    0.0162
     EDDAV:  cpu time   24.5755: real time   24.6417
       DOS:  cpu time    0.0001: real time    0.0001
    CHARGE:  cpu time    0.7408: real time    0.7410
    MIXING:  cpu time    0.1578: real time    0.1582
    --------------------------------------------
      LOOP:  cpu time   26.8794: real time   26.9496

 eigenvalue-minimisations  :   832
 total energy-change (2. order) :-0.2252986E+00  (-0.4838319E-03)
 number of electron     197.9999952 magnetization       1.0792017
 augmentation part      126.9641432 magnetization       1.0776244

 Broyden mixing:
  rms(total) = 0.16639E-01    rms(broyden)= 0.16637E-01
  rms(prec ) = 0.16998E-01
  weight for this iteration     100.00

 eigenvalues of (default mixing * dielectric matrix)
  average eigenvalue GAMMA=   1.9224
 12.3280  7.9123  3.9880  2.5746  1.8815  1.2985  1.2327  1.2327  0.9528  0.9528
  0.6783  0.6783  0.6531  0.6531  0.5151  0.5151  0.5144  0.5144  0.4052  0.4320
  0.4583

 Free energy of the ion-electron system (eV)
  ---------------------------------------------------
  alpha Z        PSCENC =         8.77593644
  Ewald energy   TEWEN  =     48726.42453295
  -Hartree energ DENC   =    -71430.28055060
  -exchange      EXHF   =         0.00000000
  -V(xc)+E(xc)   XCENC  =       796.77652274
  PAW double counting   =     23290.77021031   -25221.55705597
  entropy T*S    EENTRO =         0.00000000
  eigenvalues    EBANDS =     -1256.14726135
  atomic energy  EATOM  =     25036.84052384
  Solvation  Ediel_sol  =         0.00000000
  ---------------------------------------------------
  free energy    TOTEN  =       -48.39714163 eV

  energy without entropy =      -48.39714163  energy(sigma->0) =      -48.39714163


--------------------------------------------------------------------------------------------------------




----------------------------------------- Iteration    1(  27)  ---------------------------------------


    POTLOK:  cpu time    1.3874: real time    1.3881
    SETDIJ:  cpu time    0.0169: real time    0.0169
     EDDAV:  cpu time   22.5256: real time   23.0593
       DOS:  cpu time    0.0001: real time    0.0001
    CHARGE:  cpu time    0.7306: real time    0.7312
    MIXING:  cpu time    0.1672: real time    0.1672
    --------------------------------------------
      LOOP:  cpu time   24.8316: real time   25.3695

 eigenvalue-minimisations  :   752
 total energy-change (2. order) :-0.1161135E+00  (-0.1416197E-03)
 number of electron     197.9999952 magnetization       0.7714064
 augmentation part      126.9535752 magnetization       0.7685217

 Broyden mixing:
  rms(total) = 0.11956E-01    rms(broyden)= 0.11955E-01
  rms(prec ) = 0.12200E-01
  weight for this iteration     100.00

 eigenvalues of (default mixing * dielectric matrix)
  average eigenvalue GAMMA=   1.9447
 12.6011  8.6107  4.1382  2.8045  1.9562  1.4523  1.1740  1.1740  1.0720  0.8486
  0.8486  0.8548  0.6726  0.6726  0.5149  0.5149  0.5816  0.4052  0.4314  0.5092
  0.4904  0.4565

 Free energy of the ion-electron system (eV)
  ---------------------------------------------------
  alpha Z        PSCENC =         8.77593644
  Ewald energy   TEWEN  =     48726.42453295
  -Hartree energ DENC   =    -71430.25696047
  -exchange      EXHF   =         0.00000000
  -V(xc)+E(xc)   XCENC  =       796.69452675
  PAW double counting   =     23291.59613024   -25222.53575434
  entropy T*S    EENTRO =         0.00000000
  eigenvalues    EBANDS =     -1256.05219055
  atomic energy  EATOM  =     25036.84052384
  Solvation  Ediel_sol  =         0.00000000
  ---------------------------------------------------
  free energy    TOTEN  =       -48.51325513 eV

  energy without entropy =      -48.51325513  energy(sigma->0) =      -48.51325513


--------------------------------------------------------------------------------------------------------




----------------------------------------- Iteration    1(  28)  ---------------------------------------


    POTLOK:  cpu time    1.3849: real time    1.3858
    SETDIJ:  cpu time    0.0161: real time    0.0161
     EDDAV:  cpu time   23.8217: real time   23.8577
       DOS:  cpu time    0.0002: real time    0.0002
    CHARGE:  cpu time    0.7392: real time    0.7399
    MIXING:  cpu time    0.1732: real time    0.1732
    --------------------------------------------
      LOOP:  cpu time   26.1391: real time   26.1791

 eigenvalue-minimisations  :   800
 total energy-change (2. order) :-0.5790922E-01  (-0.1454894E-03)
 number of electron     197.9999952 magnetization       0.5076994
 augmentation part      126.9277731 magnetization       0.5021664

 Broyden mixing:
  rms(total) = 0.91202E-02    rms(broyden)= 0.91188E-02
  rms(prec ) = 0.93655E-02
  weight for this iteration     100.00

 eigenvalues of (default mixing * dielectric matrix)
  average eigenvalue GAMMA=   1.9747
 12.9265  9.1147  4.3230  3.1816  1.8995  1.8995  1.2176  1.2176  1.2448  0.9172
  0.9172  0.6778  0.6778  0.6716  0.6716  0.5150  0.5150  0.4052  0.5372  0.5223
  0.4311  0.4568  0.4763

 Free energy of the ion-electron system (eV)
  ---------------------------------------------------
  alpha Z        PSCENC =         8.77593644
  Ewald energy   TEWEN  =     48726.42453295
  -Hartree energ DENC   =    -71430.68215527
  -exchange      EXHF   =         0.00000000
  -V(xc)+E(xc)   XCENC  =       796.68661354
  PAW double counting   =     23291.52270677   -25222.72904246
  entropy T*S    EENTRO =         0.00000000
  eigenvalues    EBANDS =     -1255.41028018
  atomic energy  EATOM  =     25036.84052384
  Solvation  Ediel_sol  =         0.00000000
  ---------------------------------------------------
  free energy    TOTEN  =       -48.57116435 eV

  energy without entropy =      -48.57116435  energy(sigma->0) =      -48.57116435


--------------------------------------------------------------------------------------------------------




----------------------------------------- Iteration    1(  29)  ---------------------------------------


    POTLOK:  cpu time    1.3867: real time    1.3883
    SETDIJ:  cpu time    0.0162: real time    0.0162
     EDDAV:  cpu time   23.4079: real time   23.4306
       DOS:  cpu time    0.0002: real time    0.0002
    CHARGE:  cpu time    0.7432: real time    0.7436
    MIXING:  cpu time    0.1850: real time    0.1853
    --------------------------------------------
      LOOP:  cpu time   25.7427: real time   25.7702

 eigenvalue-minimisations  :   784
 total energy-change (2. order) :-0.5959571E-01  (-0.7421429E-04)
 number of electron     197.9999952 magnetization       0.3565889
 augmentation part      126.9272769 magnetization       0.3550959

 Broyden mixing:
  rms(total) = 0.75109E-02    rms(broyden)= 0.75103E-02
  rms(prec ) = 0.76887E-02
  weight for this iteration     100.00

 eigenvalues of (default mixing * dielectric matrix)
  average eigenvalue GAMMA=   1.9971
 13.1463  9.7792  4.4578  3.4330  2.2824  1.6559  1.4845  1.2394  1.2394  0.9737
  0.9737  0.7532  0.7532  0.6754  0.6754  0.5150  0.5150  0.6010  0.5346  0.4052
  0.4965  0.4309  0.4551  0.4551

 Free energy of the ion-electron system (eV)
  ---------------------------------------------------
  alpha Z        PSCENC =         8.77593644
  Ewald energy   TEWEN  =     48726.42453295
  -Hartree energ DENC   =    -71430.04540323
  -exchange      EXHF   =         0.00000000
  -V(xc)+E(xc)   XCENC  =       796.62893906
  PAW double counting   =     23288.91445217   -25220.09328787
  entropy T*S    EENTRO =         0.00000000
  eigenvalues    EBANDS =     -1256.07645343
  atomic energy  EATOM  =     25036.84052384
  Solvation  Ediel_sol  =         0.00000000
  ---------------------------------------------------
  free energy    TOTEN  =       -48.63076006 eV

  energy without entropy =      -48.63076006  energy(sigma->0) =      -48.63076006


--------------------------------------------------------------------------------------------------------




----------------------------------------- Iteration    1(  30)  ---------------------------------------


    POTLOK:  cpu time    1.3810: real time    1.3828
    SETDIJ:  cpu time    0.0162: real time    0.0162
     EDDAV:  cpu time   22.4300: real time   22.4906
       DOS:  cpu time    0.0002: real time    0.0002
    CHARGE:  cpu time    0.7396: real time    0.7400
    MIXING:  cpu time    0.1904: real time    0.1907
    --------------------------------------------
      LOOP:  cpu time   24.7610: real time   24.8268

 eigenvalue-minimisations  :   744
 total energy-change (2. order) :-0.4951785E-01  (-0.3232767E-04)
 number of electron     197.9999952 magnetization       0.2261420
 augmentation part      126.9399738 magnetization       0.2242350

 Broyden mixing:
  rms(total) = 0.47604E-02    rms(broyden)= 0.47599E-02
  rms(prec ) = 0.48895E-02
  weight for this iteration     100.00

 eigenvalues of (default mixing * dielectric matrix)
  average eigenvalue GAMMA=   2.0226
 13.5581 10.0277  4.8788  3.5667  2.6205  1.6896  1.6896  1.1915  1.1915  1.1451
  0.9247  0.9247  0.6782  0.6782  0.7040  0.7040  0.5150  0.5150  0.6133  0.5053
  0.5053  0.4052  0.4305  0.4507  0.4507

 Free energy of the ion-electron system (eV)
  ---------------------------------------------------
  alpha Z        PSCENC =         8.77593644
  Ewald energy   TEWEN  =     48726.42453295
  -Hartree energ DENC   =    -71429.20396124
  -exchange      EXHF   =         0.00000000
  -V(xc)+E(xc)   XCENC  =       796.55565736
  PAW double counting   =     23287.66061242   -25218.68513345
  entropy T*S    EENTRO =         0.00000000
  eigenvalues    EBANDS =     -1257.04844623
  atomic energy  EATOM  =     25036.84052384
  Solvation  Ediel_sol  =         0.00000000
  ---------------------------------------------------
  free energy    TOTEN  =       -48.68027791 eV

  energy without entropy =      -48.68027791  energy(sigma->0) =      -48.68027791


--------------------------------------------------------------------------------------------------------




----------------------------------------- Iteration    1(  31)  ---------------------------------------


    POTLOK:  cpu time    1.3841: real time    1.3898
    SETDIJ:  cpu time    0.0169: real time    0.0169
     EDDAV:  cpu time   21.4981: real time   21.5272
       DOS:  cpu time    0.0002: real time    0.0002
    CHARGE:  cpu time    0.7345: real time    0.7350
    MIXING:  cpu time    0.2051: real time    0.2052
    --------------------------------------------
      LOOP:  cpu time   23.8426: real time   23.8807

 eigenvalue-minimisations  :   704
 total energy-change (2. order) :-0.2742597E-01  (-0.2478507E-04)
 number of electron     197.9999952 magnetization       0.1189330
 augmentation part      126.9467473 magnetization       0.1189033

 Broyden mixing:
  rms(total) = 0.40823E-02    rms(broyden)= 0.40819E-02
  rms(prec ) = 0.42236E-02
  weight for this iteration     100.00

 eigenvalues of (default mixing * dielectric matrix)
  average eigenvalue GAMMA=   2.0371
 13.9407 10.1028  5.5349  3.1607  3.1607  1.8026  1.8026  1.2280  1.2280  1.2384
  0.9749  0.9749  0.7526  0.7526  0.6752  0.6752  0.5150  0.5150  0.6069  0.5969
  0.4995  0.4995  0.4052  0.4294  0.4460  0.4460

 Free energy of the ion-electron system (eV)
  ---------------------------------------------------
  alpha Z        PSCENC =         8.77593644
  Ewald energy   TEWEN  =     48726.42453295
  -Hartree energ DENC   =    -71429.28705048
  -exchange      EXHF   =         0.00000000
  -V(xc)+E(xc)   XCENC  =       796.51963928
  PAW double counting   =     23287.74714576   -25218.71045776
  entropy T*S    EENTRO =         0.00000000
  eigenvalues    EBANDS =     -1257.01797391
  atomic energy  EATOM  =     25036.84052384
  Solvation  Ediel_sol  =         0.00000000
  ---------------------------------------------------
  free energy    TOTEN  =       -48.70770388 eV

  energy without entropy =      -48.70770388  energy(sigma->0) =      -48.70770388


--------------------------------------------------------------------------------------------------------




----------------------------------------- Iteration    1(  32)  ---------------------------------------


    POTLOK:  cpu time    1.3849: real time    1.3860
    SETDIJ:  cpu time    0.0161: real time    0.0161
     EDDAV:  cpu time   22.1642: real time   22.1879
       DOS:  cpu time    0.0002: real time    0.0002
    CHARGE:  cpu time    0.7421: real time    0.7424
    MIXING:  cpu time    0.2127: real time    0.2130
    --------------------------------------------
      LOOP:  cpu time   24.5239: real time   24.5520

 eigenvalue-minimisations  :   732
 total energy-change (2. order) :-0.1193089E-01  (-0.1548839E-04)
 number of electron     197.9999952 magnetization       0.0707640
 augmentation part      126.9437270 magnetization       0.0725575

 Broyden mixing:
  rms(total) = 0.26595E-02    rms(broyden)= 0.26592E-02
  rms(prec ) = 0.27234E-02
  weight for this iteration     100.00

 eigenvalues of (default mixing * dielectric matrix)
  average eigenvalue GAMMA=   2.0436
 14.2566 10.2273  6.1122  3.2665  3.2665  1.8784  1.8784  1.2287  1.2287  1.2071
[...]
  0.020   0.001   1.190  -0.002  -0.005  -0.012  -0.001   6.176
 -0.003  -0.017  -0.002   1.190  -0.001   0.002   0.009   0.002
  0.003   0.007  -0.005  -0.001   1.189  -0.002  -0.005   0.004
 -0.005  -0.001   0.002  -0.000   0.002  -0.003  -0.000  -0.001
 -0.009  -0.001   0.004  -0.001   0.003  -0.006  -0.000  -0.002
  0.015   0.003   0.007  -0.000   0.012  -0.009  -0.002  -0.004
 -0.000  -0.013   0.005   0.015   0.001   0.000   0.008  -0.003
 -0.013  -0.000  -0.009   0.004   0.015   0.008   0.000   0.004
  0.015   0.003   0.007  -0.000   0.013  -0.007  -0.001  -0.003
 -0.000  -0.014   0.005   0.015   0.001   0.000   0.007  -0.003
 -0.014  -0.000  -0.009   0.005   0.015   0.008   0.000   0.003
 pseudopotential strength for first ion, spin component:           2
-10.742  -0.003  -0.026   0.004  -0.004   1.182   0.002   0.020
 -0.003 -10.739  -0.002   0.023  -0.010   0.002   1.181   0.001
 -0.026  -0.002 -10.751   0.002   0.007   0.020   0.001   1.190
  0.004   0.023   0.002 -10.751   0.001  -0.003  -0.017  -0.002
 -0.004  -0.010   0.007   0.001 -10.751   0.003   0.007  -0.005
  1.182   0.002   0.020  -0.003   0.003   6.183  -0.001  -0.012
  0.002   1.181   0.001  -0.017   0.007  -0.001   6.182  -0.001
  0.020   0.001   1.190  -0.002  -0.005  -0.012  -0.001   6.176
 -0.003  -0.017  -0.002   1.190  -0.001   0.002   0.009   0.002
  0.003   0.007  -0.005  -0.001   1.189  -0.002  -0.005   0.004
 -0.005  -0.001   0.002  -0.000   0.002  -0.003  -0.000  -0.001
 -0.009  -0.001   0.004  -0.001   0.003  -0.006  -0.000  -0.002
  0.015   0.003   0.007  -0.000   0.012  -0.009  -0.002  -0.004
 -0.000  -0.013   0.005   0.015   0.001   0.000   0.008  -0.003
 -0.013  -0.000  -0.009   0.004   0.015   0.008   0.000   0.004
  0.015   0.003   0.007  -0.000   0.013  -0.007  -0.001  -0.003
 -0.000  -0.014   0.005   0.015   0.001   0.000   0.007  -0.003
 -0.014  -0.000  -0.009   0.005   0.015   0.008   0.000   0.003
 total augmentation occupancy for first ion, spin component:           1
  1.960  -0.004  -0.007   0.000  -0.005  -0.019   0.002   0.006   0.002   0.004   0.026   0.002  -0.062  -0.005   0.036   0.027
 -0.004   1.951  -0.005  -0.002  -0.004   0.002  -0.016   0.005  -0.008   0.005   0.002  -0.003  -0.028   0.036  -0.006   0.008
 -0.007  -0.005   1.946   0.006   0.005   0.006   0.005  -0.006  -0.002  -0.001   0.007  -0.008  -0.030  -0.018   0.031   0.013
  0.000  -0.002   0.006   1.954   0.002   0.002  -0.008  -0.002  -0.011  -0.001  -0.003   0.002  -0.003  -0.066  -0.009   0.001
 -0.005  -0.004   0.005   0.002   1.944   0.004   0.005  -0.001  -0.001  -0.012  -0.000  -0.001  -0.060   0.012  -0.063   0.024
 -0.019   0.002   0.006   0.002   0.004   0.007   0.000   0.002   0.001   0.000  -0.047   0.005  -0.017  -0.002   0.013   0.001
  0.002  -0.016   0.005  -0.008   0.005   0.000   0.006  -0.001  -0.003   0.001   0.001   0.001  -0.003   0.015  -0.001   0.000
  0.006   0.005  -0.006  -0.002  -0.001   0.002  -0.001   0.008   0.002  -0.001   0.016   0.000  -0.006  -0.013   0.007   0.000
  0.002  -0.008  -0.002  -0.011  -0.001   0.001  -0.003   0.002   0.009   0.001   0.001  -0.002  -0.002  -0.025  -0.003   0.000
  0.004   0.005  -0.001  -0.001  -0.012   0.000   0.001  -0.001   0.001   0.007   0.009  -0.002  -0.008  -0.000  -0.015   0.000
  0.026   0.002   0.007  -0.003  -0.000  -0.047   0.001   0.016   0.001   0.009   1.705  -0.092   0.163  -0.067  -0.223  -0.019
  0.002  -0.003  -0.008   0.002  -0.001   0.005   0.001   0.000  -0.002  -0.002  -0.092   0.010  -0.015   0.009   0.025   0.002
 -0.062  -0.028  -0.030  -0.003  -0.060  -0.017  -0.003  -0.006  -0.002  -0.008   0.163  -0.015   0.070   0.005  -0.024  -0.007
 -0.005   0.036  -0.018  -0.066   0.012  -0.002   0.015  -0.013  -0.025  -0.000  -0.067   0.009   0.005   0.113   0.002   0.001
  0.036  -0.006   0.031  -0.009  -0.063   0.013  -0.001   0.007  -0.003  -0.015  -0.223   0.025  -0.024   0.002   0.088   0.003
  0.027   0.008   0.013   0.001   0.024   0.001   0.000   0.000   0.000   0.000  -0.019   0.002  -0.007   0.001   0.003   0.001
  0.001  -0.022   0.008   0.028  -0.000  -0.000  -0.001   0.001   0.001  -0.000   0.009  -0.001   0.001  -0.007  -0.001  -0.000
 -0.021   0.000  -0.017   0.008   0.030  -0.001  -0.000  -0.000   0.000   0.001   0.028  -0.002   0.003  -0.001  -0.009  -0.000
 total augmentation occupancy for first ion, spin component:           2
 -0.000   0.000   0.000   0.000   0.000  -0.000   0.000   0.000   0.000   0.000   0.000  -0.000  -0.000   0.000   0.000   0.000
  0.000  -0.000  -0.000  -0.000  -0.000   0.000  -0.000   0.000  -0.000  -0.000  -0.000   0.000   0.000   0.000  -0.000  -0.000
  0.000  -0.000   0.000   0.000  -0.000   0.000   0.000   0.000   0.000  -0.000   0.000  -0.000   0.000  -0.000  -0.000  -0.000
  0.000  -0.000   0.000  -0.000  -0.000   0.000  -0.000   0.000  -0.000  -0.000   0.000  -0.000   0.000  -0.000   0.000  -0.000
  0.000  -0.000  -0.000  -0.000   0.000   0.000   0.000  -0.000  -0.000   0.000  -0.000   0.000   0.000   0.000   0.000  -0.000
 -0.000   0.000   0.000   0.000   0.000   0.000  -0.000  -0.000  -0.000  -0.000   0.000   0.000   0.000  -0.000  -0.000  -0.000
  0.000  -0.000   0.000  -0.000   0.000  -0.000   0.000   0.000   0.000  -0.000   0.000  -0.000   0.000  -0.000   0.000  -0.000
  0.000   0.000   0.000   0.000  -0.000  -0.000   0.000  -0.000   0.000   0.000  -0.000   0.000  -0.000   0.000   0.000   0.000
  0.000  -0.000   0.000  -0.000  -0.000  -0.000   0.000   0.000   0.000   0.000  -0.000   0.000  -0.000   0.000  -0.000   0.000
  0.000  -0.000  -0.000  -0.000   0.000  -0.000  -0.000   0.000   0.000  -0.000   0.000  -0.000  -0.000  -0.000  -0.000   0.000
  0.000  -0.000   0.000   0.000  -0.000   0.000   0.000  -0.000  -0.000   0.000  -0.000  -0.000   0.000   0.000   0.000  -0.000
 -0.000   0.000  -0.000  -0.000   0.000   0.000  -0.000   0.000   0.000  -0.000  -0.000   0.000  -0.000   0.000  -0.000   0.000
 -0.000   0.000   0.000   0.000   0.000   0.000   0.000  -0.000  -0.000  -0.000   0.000  -0.000  -0.000   0.000  -0.000   0.000
  0.000   0.000  -0.000  -0.000   0.000  -0.000  -0.000   0.000   0.000  -0.000   0.000   0.000   0.000   0.000  -0.000  -0.000
  0.000  -0.000  -0.000   0.000   0.000  -0.000   0.000   0.000  -0.000  -0.000   0.000  -0.000  -0.000  -0.000  -0.000   0.000
  0.000  -0.000  -0.000  -0.000  -0.000  -0.000  -0.000   0.000   0.000   0.000  -0.000   0.000   0.000  -0.000   0.000  -0.000
 -0.000  -0.000   0.000   0.000  -0.000   0.000   0.000  -0.000  -0.000  -0.000  -0.000  -0.000  -0.000  -0.000   0.000   0.000
 -0.000  -0.000   0.000  -0.000  -0.000   0.000  -0.000  -0.000  -0.000   0.000  -0.000   0.000   0.000   0.000   0.000  -0.000


------------------------ aborting loop because EDIFF is reached ----------------------------------------


 


 total charge     
 
# of ion     s       p       d       tot
----------------------------------------
  1        0.496   0.140   9.275   9.910
  2        0.468   0.180   9.270   9.918
  3        0.469   0.181   9.270   9.920
  4        0.494   0.139   9.275   9.908
  5        0.495   0.140   9.274   9.909
  6        0.469   0.236   9.239   9.944
  7        0.446   0.275   9.218   9.939
  8        0.446   0.286   9.229   9.961
  9        0.449   0.279   9.218   9.945
 10        0.449   0.280   9.217   9.947
 11        0.496   0.140   9.274   9.910
 12        0.445   0.287   9.228   9.960
 13        0.470   0.237   9.239   9.946
 14        0.469   0.182   9.270   9.920
 15        0.447   0.289   9.228   9.964
 16        0.449   0.279   9.218   9.945
 17        0.470   0.182   9.269   9.921
 18        0.447   0.288   9.229   9.963
------------------------------------------------
tot        8.372   4.017 166.441 178.830
 


 magnetization (x)
 
# of ion     s       p       d       tot
----------------------------------------
  1       -0.000  -0.000  -0.000  -0.000
  2       -0.000   0.000  -0.000  -0.000
  3        0.000   0.000  -0.000  -0.000
  4       -0.000   0.000  -0.000  -0.000
  5       -0.000   0.000  -0.000  -0.000
  6       -0.000  -0.000  -0.000  -0.000
  7       -0.000  -0.000  -0.000  -0.000
  8       -0.000  -0.000  -0.000  -0.000
  9       -0.000  -0.000  -0.000  -0.000
 10       -0.000  -0.000  -0.000  -0.000
 11       -0.000  -0.000  -0.000  -0.000
 12       -0.000  -0.000  -0.000  -0.000
 13       -0.000  -0.000  -0.000  -0.000
 14       -0.000   0.000  -0.000  -0.000
 15       -0.000  -0.000  -0.000  -0.000
 16       -0.000  -0.000  -0.000  -0.000
 17       -0.000   0.000  -0.000  -0.000
 18       -0.000  -0.000  -0.000  -0.000
------------------------------------------------
tot       -0.000  -0.000  -0.000  -0.000
 
    CHARGE:  cpu time    0.7347: real time    0.7352
    FORLOC:  cpu time    0.0707: real time    0.0708
    FORNL :  cpu time    6.1255: real time    6.1287
    STRESS:  cpu time   20.9763: real time   21.3649
    FORCOR:  cpu time    1.3938: real time    1.3945
    FORHAR:  cpu time    0.2133: real time    0.2136
    MIXING:  cpu time    0.0516: real time    0.0516
    OFIELD:  cpu time    0.0001: real time    0.0001

  FORCE on cell =-STRESS in cart. coord.  units (eV):
  Direction    XX          YY          ZZ          XY          YZ          ZX
  --------------------------------------------------------------------------------------
  Alpha Z     8.77594     8.77594     8.77594
  Ewald   11529.45986 17268.55700 19932.99653 -5837.40857  2388.52934  2050.01281
  Hartree 19589.39919 24740.95623 27104.82967 -5200.85868  2153.56081  1812.52400
  E(xc)   -1156.16955 -1155.16413 -1154.59791    -1.12169     0.36879     0.45226
  Local  -32874.53792-43753.31430-48777.02806 11026.36032 -4536.44330 -3859.28524
  n-local  -427.18984  -425.66449  -424.43000    -1.94099     0.25171     0.92408
  augment  1695.41934  1688.82495  1685.98452     6.76778    -2.92705    -2.09895
  Kinetic  1629.93166  1622.13859  1618.62751     8.15170    -3.45553    -2.72690
  Fock        0.00000     0.00000     0.00000     0.00000     0.00000     0.00000
  -------------------------------------------------------------------------------------
  Total      -4.91133    -4.89020    -4.84180    -0.05013    -0.11525    -0.19793
  in kB      -0.29144    -0.29018    -0.28731    -0.00297    -0.00684    -0.01175
  external pressure =       -0.29 kB  Pullay stress =        0.00 kB


 VOLUME and BASIS-vectors are now :
 -----------------------------------------------------------------------------
  energy-cutoff  :      295.45
  volume of cell :    27000.00
      direct lattice vectors                 reciprocal lattice vectors
    30.000000000  0.000000000  0.000000000     0.033333333  0.000000000  0.000000000
     0.000000000 30.000000000  0.000000000     0.000000000  0.033333333  0.000000000
     0.000000000  0.000000000 30.000000000     0.000000000  0.000000000  0.033333333

  length of vectors
    30.000000000 30.000000000 30.000000000     0.033333333  0.033333333  0.033333333


 FORCES acting on ions
    electron-ion (+dipol)            ewald-force                    non-local-force                 convergence-correction
 -----------------------------------------------------------------------------------------------
   -.129E+04 0.840E+03 -.354E+03   0.128E+04 -.833E+03 0.352E+03   0.792E+01 -.624E+01 0.216E+01   0.381E-02 0.323E-03 0.243E-02
   -.109E+04 0.763E+03 0.883E+03   0.109E+04 -.760E+03 -.878E+03   0.578E+01 -.362E+01 -.560E+01   -.475E-02 -.143E-02 -.116E-02
   -.316E+02 -.149E+04 -.568E+03   0.307E+02 0.149E+04 0.564E+03   0.869E+00 0.787E+01 0.373E+01   -.148E-02 0.316E-02 -.665E-03
   0.776E+03 0.335E+03 0.133E+04   -.771E+03 -.333E+03 -.132E+04   -.425E+01 -.214E+01 -.929E+01   -.962E-02 -.670E-02 0.373E-02
   0.437E+03 -.140E+04 0.593E+03   -.433E+03 0.139E+04 -.590E+03   -.351E+01 0.915E+01 -.342E+01   -.393E-02 -.281E-02 -.445E-02
   0.741E+03 -.633E+03 0.115E+04   -.738E+03 0.631E+03 -.114E+04   -.263E+01 0.224E+01 -.401E+01   -.755E-02 -.702E-02 0.374E-02
   0.123E+04 0.652E+03 0.131E+03   -.123E+04 -.650E+03 -.129E+03   -.326E+01 -.201E+01 -.167E+01   0.145E-02 -.199E-02 0.198E-02
   -.772E+03 -.709E+03 -.840E+03   0.772E+03 0.709E+03 0.837E+03   0.103E+00 0.134E+00 0.320E+01   0.453E-02 0.327E-02 -.347E-02
   -.134E+04 -.392E+03 0.917E+02   0.133E+04 0.392E+03 -.915E+02   0.401E+01 -.283E+00 -.104E+00   -.654E-02 -.224E-02 -.258E-02
   0.906E+03 0.746E+03 -.731E+03   -.904E+03 -.745E+03 0.728E+03   -.189E+01 -.126E+01 0.312E+01   0.841E-02 -.289E-02 0.824E-03
   0.647E+02 0.219E+03 -.156E+04   -.646E+02 -.218E+03 0.155E+04   -.117E+00 -.706E+00 0.103E+02   0.557E-02 0.318E-02 -.196E-02
   -.545E+03 -.154E+03 0.121E+04   0.546E+03 0.155E+03 -.120E+04   -.109E+01 -.774E+00 -.282E+01   0.141E-02 -.166E-02 -.784E-02
   -.742E+03 0.626E+03 -.115E+04   0.740E+03 -.624E+03 0.115E+04   0.262E+01 -.219E+01 0.407E+01   0.911E-02 0.136E-01 -.885E-03
   0.214E+03 0.135E+04 0.833E+03   -.213E+03 -.134E+04 -.829E+03   -.958E+00 -.783E+01 -.372E+01   -.256E-02 0.431E-02 0.451E-02
   0.580E+02 0.130E+04 -.266E+03   -.604E+02 -.130E+04 0.265E+03   0.236E+01 -.203E+01 0.531E+00   0.577E-02 -.117E-03 0.262E-02
   -.802E+03 -.101E+04 0.522E+03   0.801E+03 0.100E+04 -.521E+03   0.101E+01 0.361E+01 -.130E+01   -.818E-02 -.497E-02 -.494E-02
   0.926E+03 -.599E+03 -.116E+04   -.920E+03 0.595E+03 0.115E+04   -.573E+01 0.343E+01 0.566E+01   0.586E-02 0.176E-02 0.159E-02
   0.125E+04 -.448E+03 -.108E+03   -.125E+04 0.445E+03 0.108E+03   -.118E+01 0.273E+01 -.757E+00   -.144E-02 0.750E-03 0.256E-02
 -----------------------------------------------------------------------------------------------
   -.934E-01 -.125E+00 -.680E-01   -.227E-12 0.102E-11 -.455E-12   0.599E-01 0.850E-01 0.768E-01   -.127E-03 -.144E-02 -.397E-02
 
 
 POSITION                                       TOTAL-FORCE (eV/Angst)
 -----------------------------------------------------------------------------------
     12.91300      7.77840     10.61386        -0.001400     -0.006459      0.000058
     12.12269      7.92726      8.32994        -0.002411      0.003340     -0.008326
      9.52547     13.11231     11.11869         0.002820     -0.003740      0.006115
      8.35200      9.01440      6.72022         0.009656      0.010861     -0.001697
      8.78451     13.30921      8.82819        -0.005421      0.003776     -0.011597
      8.55349     11.15731      7.78739         0.010506      0.004139      0.004882
      8.39909      9.01134      9.12467         0.017019      0.012777      0.003876
     10.65492     11.04307     11.66873        -0.012317     -0.006955      0.007184
     11.94503      9.85794      9.92279        -0.007422     -0.003600      0.010062
      8.96616      9.24247     11.48506        -0.002221      0.008357      0.000209
      9.81132      9.75232     13.67351        -0.012193      0.000682      0.003475
     10.47176      9.66388      7.92697         0.001592      0.004523     -0.005128
     11.37599      8.77549     12.14296        -0.014402     -0.009818     -0.000324
      9.73372      7.35610      7.81427         0.014364      0.001091     -0.009887
     10.43846      7.90418     10.05793         0.007363     -0.010866      0.013306
     10.52772     11.72342      9.28445         0.001520      0.003075     -0.003186
      8.43856     11.41996     12.60047        -0.013256      0.000807     -0.000993
      8.28086     11.24571     10.19464         0.006204     -0.011991     -0.008030
 -----------------------------------------------------------------------------------
    total drift:                               -0.033673     -0.041580      0.004830


--------------------------------------------------------------------------------------------------------



  FREE ENERGIE OF THE ION-ELECTRON SYSTEM (eV)
  ---------------------------------------------------
  free  energy   TOTEN  =       -48.74562278 eV

  energy  without entropy=      -48.74562278  energy(sigma->0) =      -48.74562278
 
 d Force = 0.7048487E-03[ 0.418E-03, 0.991E-03]  d Energy = 0.7142563E-03-0.941E-05
 d Force =-0.1045102E+01[-0.982E+00,-0.111E+01]  d Ewald  =-0.1045098E+01-0.415E-05


--------------------------------------------------------------------------------------------------------


    POTLOK:  cpu time    1.4063: real time    1.4072


--------------------------------------------------------------------------------------------------------


 Conjugate gradient step on ions:
 trial-energy change:   -0.000714  1 .order   -0.000705   -0.000991   -0.000418
  (g-gl).g = 0.376E-03      g.g   = 0.406E-03  gl.gl    = 0.661E-03
 g(Force)  = 0.406E-03   g(Stress)= 0.000E+00 ortho     = 0.298E-04
 gamma     =   0.56935
 trial     =   2.34656
 opt step  =   3.82224  (harmonic =   4.05896) maximal distance =0.00938351
 next E    =   -48.745757   (d E  =  -0.00085)


--------------------------------------------------------------------------------------------------------


  
 reached required accuracy - stopping structural energy minimisation
     LOOP+:  cpu time  225.2718: real time  226.0501
    4ORBIT:  cpu time    0.0000: real time    0.0000
 


 total charge     
 
# of ion     s       p       d       tot
----------------------------------------
  1        0.496   0.140   9.275   9.910
  2        0.468   0.180   9.270   9.918
  3        0.469   0.181   9.270   9.920
  4        0.494   0.139   9.275   9.908
  5        0.495   0.140   9.274   9.909
  6        0.469   0.236   9.239   9.944
  7        0.446   0.275   9.218   9.939
  8        0.446   0.286   9.229   9.961
  9        0.449   0.279   9.218   9.945
 10        0.449   0.280   9.217   9.947
 11        0.496   0.140   9.274   9.910
 12        0.445   0.287   9.228   9.960
 13        0.470   0.237   9.239   9.946
 14        0.469   0.182   9.270   9.920
 15        0.447   0.289   9.228   9.964
 16        0.449   0.279   9.218   9.945
 17        0.470   0.182   9.269   9.921
 18        0.447   0.288   9.229   9.963
------------------------------------------------
tot        8.372   4.017 166.441 178.830
 


 magnetization (x)
 
# of ion     s       p       d       tot
----------------------------------------
  1       -0.000  -0.000  -0.000  -0.000
  2       -0.000   0.000  -0.000  -0.000
  3        0.000   0.000  -0.000  -0.000
  4       -0.000   0.000  -0.000  -0.000
  5       -0.000   0.000  -0.000  -0.000
  6       -0.000  -0.000  -0.000  -0.000
  7       -0.000  -0.000  -0.000  -0.000
  8       -0.000  -0.000  -0.000  -0.000
  9       -0.000  -0.000  -0.000  -0.000
 10       -0.000  -0.000  -0.000  -0.000
 11       -0.000  -0.000  -0.000  -0.000
 12       -0.000  -0.000  -0.000  -0.000
 13       -0.000  -0.000  -0.000  -0.000
 14       -0.000   0.000  -0.000  -0.000
 15       -0.000  -0.000  -0.000  -0.000
 16       -0.000  -0.000  -0.000  -0.000
 17       -0.000   0.000  -0.000  -0.000
 18       -0.000  -0.000  -0.000  -0.000
------------------------------------------------
tot       -0.000  -0.000  -0.000  -0.000
 

 total amount of memory used by VASP on root node   179897. kBytes
========================================================================

   base      :      30000. kBytes
   nonl-proj :      11190. kBytes
   fftplans  :      30597. kBytes
   grid      :      77361. kBytes
   one-center:         46. kBytes
   wavefun   :      30703. kBytes
 
  
  
 General timing and accounting informations for this job:
 ========================================================
  
                  Total CPU time used (sec):     4272.436
                            User time (sec):     4186.815
                          System time (sec):       85.621
                         Elapsed time (sec):     4304.541
  
                   Maximum memory used (kb):      321232.
                   Average memory used (kb):           0.
  
                          Minor page faults:      4231362
                          Major page faults:            0
                 Voluntary context switches:         4356
