 vasp.5.4.4.18Apr17-6-g9f103f2a35 (build Jan 23 2020 13:04:52) gamma-only       
  
 executed on           IFC91_ompi date 2021.01.01  10:32:39
 running on   44 total cores
 distrk:  each k-point on   44 cores,    1 groups
 distr:  one band on NCORES_PER_BAND=  11 cores,    4 groups


--------------------------------------------------------------------------------------------------------


 INCAR:
 POTCAR:    PAW_PBE Cu 22Jun2005                  
 POTCAR:    PAW_PBE Cu 22Jun2005                  
   VRHFIN =Cu: d10 p1                                                           
   LEXCH  = PE                                                                  
   EATOM  =  1390.9808 eV,  102.2342 Ry                                         
                                                                                
   TITEL  = PAW_PBE Cu 22Jun2005                                                
   LULTRA =        F    use ultrasoft PP ?                                      
   IUNSCR =        1    unscreen: 0-lin 1-nonlin 2-no                           
   RPACOR =    2.000    partial core radius                                     
   POMASS =   63.546; ZVAL   =   11.000    mass and valenz                      
   RCORE  =    2.300    outmost cutoff radius                                   
   RWIGS  =    2.200; RWIGS  =    1.164    wigner-seitz radius (au A)           
   ENMAX  =  295.446; ENMIN  =  221.585 eV                                      
   ICORE  =        3    local potential                                         
   LCOR   =        T    correct aug charges                                     
   LPAW   =        T    paw PP                                                  
   EAUG   =  586.980                                                            
   DEXC   =    0.000                                                            
   RMAX   =    2.344    core radius for proj-oper                               
   RAUG   =    1.300    factor for augmentation sphere                          
   RDEP   =    2.302    radius for radial grids                                 
   RDEPT  =    1.771    core radius for aug-charge                              
                                                                                
   Atomic configuration                                                         
    9 entries                                                                   
     n  l   j            E        occ.                                          
     1  0  0.50     -8850.2468   2.0000                                         
     2  0  0.50     -1062.3498   2.0000                                         
     2  1  1.50      -916.8226   6.0000                                         
     3  0  0.50      -114.6929   2.0000                                         
     3  1  1.50       -72.1325   6.0000                                         
     3  2  2.50        -5.0394  10.0000                                         
     4  0  0.50        -4.6097   1.0000                                         
     4  1  0.50        -4.0817   0.0000                                         
     4  3  2.50        -1.3606   0.0000                                         
   Description                                                                  
     l       E           TYP  RCUT    TYP  RCUT                                 
     2     -5.0393973     23  2.200                                             
     2     10.8846608     23  2.200                                             
     0     -4.6097109     23  2.200                                             
     0      8.2520465     23  2.200                                             
     1     -2.7211652     23  2.200                                             
     1     21.7055443     23  2.200                                             
     3      2.7211652     23  2.300                                             
  local pseudopotential read in
  partial core-charges read in
  partial kinetic energy density read in
  atomic valenz-charges read in
  non local Contribution for L=           2  read in
    real space projection operators read in
  non local Contribution for L=           2  read in
    real space projection operators read in
  non local Contribution for L=           0  read in
    real space projection operators read in
  non local Contribution for L=           0  read in
    real space projection operators read in
  non local Contribution for L=           1  read in
    real space projection operators read in
  non local Contribution for L=           1  read in
    real space projection operators read in
    PAW grid and wavefunctions read in
 
   number of l-projection  operators is LMAX  =           6
   number of lm-projection operators is LMMAX =          18
 

 ----------------------------------------------------------------------------- 
|                                                                             |
|  ADVICE TO THIS USER RUNNING 'VASP/VAMP'   (HEAR YOUR MASTER'S VOICE ...):  |
|                                                                             |
|      You have a (more or less) 'large supercell' and for larger cells       |
|      it might be more efficient to use real space projection opertators     |
|      So try LREAL= Auto  in the INCAR   file.                               |
|      Mind:          For very  accurate calculation you might also keep the  |
|      reciprocal projection scheme          (i.e. LREAL=.FALSE.)             |
|                                                                             |
 ----------------------------------------------------------------------------- 

  PAW_PBE Cu 22Jun2005                  :
 energy of atom  1       EATOM=-1390.9808
 kinetic energy error for atom=    0.0452 (will be added to EATOM!!)
 
 
 POSCAR: Unknown Structure <s> Cu </s>           
  positions in direct lattice
  No initial velocities read in
 exchange correlation table for  LEXCH =        8
   RHO(1)=    0.500       N(1)  =     2000
   RHO(2)=  100.500       N(2)  =     4000
 


--------------------------------------------------------------------------------------------------------


 ion  position               nearest neighbor table
   1  0.197  0.269  0.324-  11 2.28   2 2.33  16 2.48  19 2.50
   2  0.236  0.232  0.268-  20 2.30   1 2.33   3 2.43  16 2.55
   3  0.287  0.294  0.258-  12 2.36  18 2.42   2 2.43  19 2.53   5 2.54  16 2.55   8 2.59  20 2.75

   4  0.427  0.372  0.262-  15 2.36  13 2.40  10 2.46  18 2.48
   5  0.291  0.378  0.269-  19 2.36  18 2.40  12 2.42  13 2.48   3 2.54  17 2.63
   6  0.235  0.377  0.393-  11 2.32  17 2.36  19 2.55  14 2.55
   7  0.370  0.353  0.383-  10 2.40  14 2.43  12 2.47  17 2.52   9 2.61  13 2.71
   8  0.364  0.261  0.279-  20 2.33  10 2.45  18 2.51  15 2.52  12 2.52   9 2.55   3 2.59
   9  0.356  0.269  0.363-  12 2.33  10 2.46  16 2.47  14 2.48   8 2.55   7 2.61
  10  0.406  0.318  0.320-  12 2.38   7 2.40   8 2.45   9 2.46   4 2.46  15 2.62  13 2.71
  11  0.219  0.302  0.389-   1 2.28   6 2.32  14 2.41  19 2.48  16 2.71
  12  0.327  0.325  0.319-   9 2.33   3 2.36  10 2.38  14 2.38  19 2.40  18 2.41   5 2.42  17 2.43
                            13 2.43  16 2.47   7 2.47   8 2.52
  13  0.363  0.396  0.304-  17 2.38   4 2.40  12 2.43   5 2.48  18 2.56   7 2.71  10 2.71
  14  0.297  0.319  0.392-  12 2.38  11 2.41   7 2.43   9 2.48  16 2.48  17 2.50   6 2.55  19 2.67

  15  0.429  0.297  0.239-   4 2.36   8 2.52  18 2.54  10 2.62
  16  0.279  0.261  0.336-  20 2.47  12 2.47   9 2.47   1 2.48  14 2.48  19 2.49   3 2.55   2 2.55
                            11 2.71
  17  0.302  0.393  0.355-   6 2.36  13 2.38  12 2.43  14 2.50   7 2.52  19 2.60   5 2.63
  18  0.354  0.337  0.244-   5 2.40  12 2.41   3 2.42   4 2.48   8 2.51  15 2.54  13 2.56
  19  0.248  0.336  0.320-   5 2.36  12 2.40  11 2.48  16 2.49   1 2.50   3 2.53   6 2.55  17 2.60
                            14 2.67
  20  0.308  0.208  0.281-   2 2.30   8 2.33  16 2.47   3 2.75
 

IMPORTANT INFORMATION: All symmetrisations will be switched off!
NOSYMM: (Re-)initialisation of all symmetry stuff for point group C_1.

 
 
 KPOINTS: Gamma-point only                        
  k-points in reciprocal lattice
Space group operators:
 irot       det(A)        alpha          n_x          n_y          n_z        tau_x        tau_y        tau_z
    1     1.000000     0.000000     1.000000     0.000000     0.000000     0.000000     0.000000     0.000000


--------------------------------------------------------------------------------------------------------




 Dimension of arrays:
   k-points           NKPTS =      1   k-points in BZ     NKDIM =      1   number of bands    NBANDS=    164
   number of dos      NEDOS =    301   number of ions     NIONS =     20
   non local maximal  LDIM  =      6   non local SUM 2l+1 LMDIM =     18
   total plane-waves  NPLWV = ******
   max r-space proj   IRMAX =      1   max aug-charges    IRDMAX=   2345
   dimension x,y,z NGX =   126 NGY =  126 NGZ =  126
   dimension x,y,z NGXF=   252 NGYF=  252 NGZF=  252
   support grid    NGXF=   252 NGYF=  252 NGZF=  252
   ions per type =              20
   NGX,Y,Z   is equivalent  to a cutoff of   6.98,  6.98,  6.98 a.u.
   NGXF,Y,Z  is equivalent  to a cutoff of  13.96, 13.96, 13.96 a.u.

 SYSTEM =  unknown system                          
 POSCAR =  Unknown Structure <s> Cu </s>           

 Startparameter for this run:
   NWRITE =      2    write-flag & timer
   PREC   = normal    normal or accurate (medium, high low for compatibility)
   ISTART =      0    job   : 0-new  1-cont  2-samecut
   ICHARG =      2    charge: 1-file 2-atom 10-const
   ISPIN  =      2    spin polarized calculation?
   LNONCOLLINEAR =      F non collinear calculations
   LSORBIT =      F    spin-orbit coupling
   INIWAV =      1    electr: 0-lowe 1-rand  2-diag
   LASPH  =      F    aspherical Exc in radial PAW
   METAGGA=      F    non-selfconsistent MetaGGA calc.

 Electronic Relaxation 1
   ENCUT  =  295.4 eV  21.71 Ry    4.66 a.u.  42.05 42.05 42.05*2*pi/ulx,y,z
   ENINI  =  295.4     initial cutoff
   ENAUG  =  587.0 eV  augmentation charge cutoff
   NELM   =     60;   NELMIN=  2; NELMDL= -5     # of ELM steps 
   EDIFF  = 0.1E-04   stopping-criterion for ELM
   LREAL  =      F    real-space projection
   NLSPLINE    = F    spline interpolate recip. space projectors
   LCOMPAT=      F    compatible to vasp.4.4
   GGA_COMPAT  = T    GGA compatible to vasp.4.4-vasp.4.6
   LMAXPAW     = -100 max onsite density
   LMAXMIX     =    2 max onsite mixed and CHGCAR
   VOSKOWN=      0    Vosko Wilk Nusair interpolation
   ROPT   =    0.00000
 Ionic relaxation
   EDIFFG = -.1E+00   stopping-criterion for IOM
   NSW    =    101    number of steps for IOM
   NBLOCK =      1;   KBLOCK =    101    inner block; outer block 
   IBRION =      2    ionic relax: 0-MD 1-quasi-New 2-CG
   NFREE  =      1    steps in history (QN), initial steepest desc. (CG)
   ISIF   =      2    stress and relaxation
   IWAVPR =     11    prediction:  0-non 1-charg 2-wave 3-comb
   ISYM   =      0    0-nonsym 1-usesym 2-fastsym
   LCORR  =      T    Harris-Foulkes like correction to forces

   POTIM  = 0.5000    time-step for ionic-motion
   TEIN   =    0.0    initial temperature
   TEBEG  =    0.0;   TEEND  =   0.0 temperature during run
   SMASS  =  -3.00    Nose mass-parameter (am)
   estimated Nose-frequenzy (Omega)   =  0.10E-29 period in steps =****** mass=  -0.206E-25a.u.
   SCALEE = 1.0000    scale energy and forces
   NPACO  =    256;   APACO  = 16.0  distance and # of slots for P.C.
   PSTRESS=    0.0 pullay stress

  Mass of Ions in am
   POMASS =  63.55
  Ionic Valenz
   ZVAL   =  11.00
  Atomic Wigner-Seitz radii
   RWIGS  =  -1.00
  virtual crystal weights 
   VCA    =   1.00
   NELECT =     220.0000    total number of electrons
   NUPDOWN=      -1.0000    fix difference up-down

 DOS related values:
   EMIN   =  10.00;   EMAX   =-10.00  energy-range for DOS
   EFERMI =   0.00
   ISMEAR =     0;   SIGMA  =   0.00  broadening in eV -4-tet -1-fermi 0-gaus

 Electronic relaxation 2 (details)
   IALGO  =     38    algorithm
   LDIAG  =      T    sub-space diagonalisation (order eigenvalues)
   LSUBROT=      F    optimize rotation matrix (better conditioning)
   TURBO    =      0    0=normal 1=particle mesh
   IRESTART =      0    0=no restart 2=restart with 2 vectors
   NREBOOT  =      0    no. of reboots
   NMIN     =      0    reboot dimension
   EREF     =   0.00    reference energy to select bands
   IMIX   =      4    mixing-type and parameters
     AMIX     =   0.40;   BMIX     =  1.00
     AMIX_MAG =   1.60;   BMIX_MAG =  1.00
     AMIN     =   0.10
     WC   =   100.;   INIMIX=   1;  MIXPRE=   1;  MAXMIX= -45

 Intra band minimization:
   WEIMIN = 0.0010     energy-eigenvalue tresh-hold
   EBREAK =  0.15E-07  absolut break condition
   DEPER  =   0.30     relativ break condition  

   TIME   =   0.40     timestep for ELM

  volume/ion in A,a.u.               =    1350.00      9110.25
  Fermi-wavevector in a.u.,A,eV,Ry     =   0.329428  0.622530  1.476547  0.108523
  Thomas-Fermi vector in A             =   1.223868
 
 Write flags
   LWAVE        =      F    write WAVECAR
   LDOWNSAMPLE  =      F    k-point downsampling of WAVECAR
   LCHARG       =      F    write CHGCAR
   LVTOT        =      F    write LOCPOT, total local potential
   LVHAR        =      F    write LOCPOT, Hartree potential only
   LELF         =      F    write electronic localiz. function (ELF)
   LORBIT       =     11    0 simple, 1 ext, 2 COOP (PROOUT), +10 PAW based schemes


 Dipole corrections
   LMONO  =      F    monopole corrections only (constant potential shift)
   LDIPOL =      F    correct potential (dipole corrections)
   IDIPOL =      0    1-x, 2-y, 3-z, 4-all directions 
   EPSILON=  1.0000000 bulk dielectric constant

 Exchange correlation treatment:
   GGA     =    PE    GGA type
   LEXCH   =     8    internal setting for exchange type
   VOSKOWN=      0    Vosko Wilk Nusair interpolation
   LHFCALC =     F    Hartree Fock is set to
   LHFONE  =     F    Hartree Fock one center treatment
   AEXX    =    0.0000 exact exchange contribution

 Linear response parameters
   LEPSILON=     F    determine dielectric tensor
   LRPA    =     F    only Hartree local field effects (RPA)
   LNABLA  =     F    use nabla operator in PAW spheres
   LVEL    =     F    velocity operator in full k-point grid
   LINTERFAST=   F  fast interpolation
   KINTER  =     0    interpolate to denser k-point grid
   CSHIFT  =0.1000    complex shift for real part using Kramers Kronig
   OMEGAMAX=  -1.0    maximum frequency
   DEG_THRESHOLD= 0.2000000E-02 threshold for treating states as degnerate
   RTIME   =   -0.100 relaxation time in fs
  (WPLASMAI=    0.000 imaginary part of plasma frequency in eV, 0.658/RTIME)
   DFIELD  = 0.0000000 0.0000000 0.0000000 field for delta impulse in time
 
 Orbital magnetization related:
   ORBITALMAG=     F  switch on orbital magnetization
   LCHIMAG   =     F  perturbation theory with respect to B field
   DQ        =  0.001000  dq finite difference perturbation B field
   LLRAUG    =     F  two centre corrections for induced B field



--------------------------------------------------------------------------------------------------------


 conjugate gradient relaxation of ions
 charge density and potential will be updated during run
 spin polarized calculation
 Variant of blocked Davidson
 Davidson routine will perform the subspace rotation
 perform sub-space diagonalisation
    after iterative eigenvector-optimisation
 modified Broyden-mixing scheme, WC =      100.0
 initial mixing is a Kerker type mixing with AMIX =  0.4000 and BMIX =      1.0000
 Hartree-type preconditioning will be used
 using additional bands           54
 reciprocal scheme for non local part
 use partial core corrections
 calculate Harris-corrections to forces 
   (improved forces if not selfconsistent)
 use gradient corrections 
 use of overlap-Matrix (Vanderbilt PP)
 Gauss-broadening in eV      SIGMA  =   0.00


--------------------------------------------------------------------------------------------------------


  energy-cutoff  :      295.45
  volume of cell :    27000.00
      direct lattice vectors                 reciprocal lattice vectors
    30.000000000  0.000000000  0.000000000     0.033333333  0.000000000  0.000000000
     0.000000000 30.000000000  0.000000000     0.000000000  0.033333333  0.000000000
     0.000000000  0.000000000 30.000000000     0.000000000  0.000000000  0.033333333

  length of vectors
    30.000000000 30.000000000 30.000000000     0.033333333  0.033333333  0.033333333


 
 k-points in units of 2pi/SCALE and weight: Gamma-point only                        
   0.00000000  0.00000000  0.00000000       1.000
 
 k-points in reciprocal lattice and weights: Gamma-point only                        
   0.00000000  0.00000000  0.00000000       1.000
 
 position of ions in fractional coordinates (direct lattice) 
   0.19746821  0.26943517  0.32415518
   0.23635753  0.23151733  0.26844697
   0.28717234  0.29399391  0.25847560
   0.42656979  0.37216458  0.26221963
   0.29058806  0.37800363  0.26935564
   0.23512378  0.37736993  0.39290939
   0.37021032  0.35260207  0.38315649
   0.36425631  0.26129288  0.27906065
   0.35620457  0.26903711  0.36331186
   0.40577154  0.31816985  0.32033702
   0.21858120  0.30187517  0.38946713
   0.32676431  0.32527014  0.31868313
   0.36326858  0.39627288  0.30448172
   0.29695360  0.31893501  0.39202198
   0.42879820  0.29696009  0.23875807
   0.27876762  0.26063468  0.33614429
   0.30225810  0.39332906  0.35493092
   0.35424543  0.33652133  0.24410825
   0.24758787  0.33578084  0.31997301
   0.30807545  0.20753552  0.28064831
 
 position of ions in cartesian coordinates  (Angst):
   5.92404619  8.08305517  9.72465526
   7.09072593  6.94551999  8.05340898
   8.61517032  8.81981723  7.75426812
  12.79709368 11.16493747  7.86658889
   8.71764192 11.34010896  8.08066912
   7.05371326 11.32109786 11.78728162
  11.10630968 10.57806220 11.49469482
  10.92768922  7.83878634  8.37181937
  10.68613705  8.07111334 10.89935578
  12.17314617  9.54509538  9.61011059
   6.55743614  9.05625517 11.68401396
   9.80292940  9.75810428  9.56049403
  10.89805744 11.88818638  9.13445147
   8.90860803  9.56805034 11.76065931
  12.86394602  8.90880264  7.16274216
   8.36302874  7.81904031 10.08432875
   9.06774288 11.79987174 10.64792751
  10.62736294 10.09563977  7.32324759
   7.42763603 10.07342519  9.59919023
   9.24226351  6.22606570  8.41944939
 


--------------------------------------------------------------------------------------------------------


 use parallel FFT for orbitals z direction half grid
 k-point  1 :   0.0000 0.0000 0.0000  plane waves:  155509

 maximum and minimum number of plane-waves per node :     14150    14126

 maximum number of plane-waves:    155509
 maximum index in each direction: 
   IXMAX=   42   IYMAX=   42   IZMAX=   42
   IXMIN=  -42   IYMIN=  -42   IZMIN=    0


 parallel 3D FFT for wavefunctions:
    minimum data exchange during FFTs selected (reduces bandwidth)
 parallel 3D FFT for charge:
    minimum data exchange during FFTs selected (reduces bandwidth)


 total amount of memory used by VASP MPI-rank0   114894. kBytes
=======================================================================

   base      :      30000. kBytes
   nonl-proj :       6562. kBytes
   fftplans  :      16829. kBytes
   grid      :      42892. kBytes
   one-center:         31. kBytes
   wavefun   :      18580. kBytes
 
     INWAV:  cpu time    0.0000: real time    0.0003
 Broyden mixing: mesh for mixing (old mesh)
   NGX = 85   NGY = 85   NGZ = 85
  (NGX  =252   NGY  =252   NGZ  =252)
  gives a total of 614125 points

 initial charge density was supplied:
 charge density of overlapping atoms calculated
 number of electron     220.0000000 magnetization      60.0000000
 keeping initial charge density in first step


--------------------------------------------------------------------------------------------------------


 Maximum index for augmentation-charges          194 (set IRDMAX)


--------------------------------------------------------------------------------------------------------


 First call to EWALD:  gamma=   0.059
 Maximum number of real-space cells 3x 3x 3
 Maximum number of reciprocal cells 3x 3x 3

    FEWALD:  cpu time    0.0040: real time    0.0013


--------------------------------------- Iteration      1(   1)  ---------------------------------------


    POTLOK:  cpu time    0.9680: real time    0.9762
    SETDIJ:  cpu time    0.0160: real time    0.0144
     EDDAV:  cpu time   10.4720: real time   10.4880
       DOS:  cpu time    0.0000: real time    0.0003
    --------------------------------------------
      LOOP:  cpu time   11.4560: real time   11.4790

 eigenvalue-minimisations  :   688
 total energy-change (2. order) : 0.1438288E+04  (-0.3101528E+04)
 number of electron     220.0000000 magnetization      60.0000000
 augmentation part      220.0000000 magnetization      60.0000000

 Free energy of the ion-electron system (eV)
  ---------------------------------------------------
  alpha Z        PSCENC =        10.83448944
  Ewald energy   TEWEN  =     59685.11185377
  -Hartree energ DENC   =    -84961.38329905
  -exchange      EXHF   =         0.00000000
  -V(xc)+E(xc)   XCENC  =       920.72973129
  PAW double counting   =     24544.34359605   -26657.91753714
  entropy T*S    EENTRO =        -0.00000000
  eigenvalues    EBANDS =        77.85768526
  atomic energy  EATOM  =     27818.71169316
  Solvation  Ediel_sol  =         0.00000000
  ---------------------------------------------------
  free energy    TOTEN  =      1438.28821279 eV

  energy without entropy =     1438.28821279  energy(sigma->0) =     1438.28821279


--------------------------------------------------------------------------------------------------------




--------------------------------------- Iteration      1(   2)  ---------------------------------------


     EDDAV:  cpu time   13.1160: real time   13.1271
       DOS:  cpu time    0.0000: real time    0.0005
    --------------------------------------------
      LOOP:  cpu time   13.1160: real time   13.1275

 eigenvalue-minimisations  :   920
 total energy-change (2. order) :-0.1042502E+04  (-0.8755459E+03)
 number of electron     220.0000000 magnetization      60.0000000
 augmentation part      220.0000000 magnetization      60.0000000

 Free energy of the ion-electron system (eV)
  ---------------------------------------------------
  alpha Z        PSCENC =        10.83448944
  Ewald energy   TEWEN  =     59685.11185377
  -Hartree energ DENC   =    -84961.38329905
  -exchange      EXHF   =         0.00000000
  -V(xc)+E(xc)   XCENC  =       920.72973129
  PAW double counting   =     24544.34359605   -26657.91753714
  entropy T*S    EENTRO =        -0.00000000
  eigenvalues    EBANDS =      -964.64402445
  atomic energy  EATOM  =     27818.71169316
  Solvation  Ediel_sol  =         0.00000000
  ---------------------------------------------------
  free energy    TOTEN  =       395.78650307 eV

  energy without entropy =      395.78650307  energy(sigma->0) =      395.78650307


--------------------------------------------------------------------------------------------------------




--------------------------------------- Iteration      1(   3)  ---------------------------------------


     EDDAV:  cpu time   12.0240: real time   12.0306
       DOS:  cpu time    0.0000: real time    0.0003
    --------------------------------------------
      LOOP:  cpu time   12.0240: real time   12.0308

 eigenvalue-minimisations  :   824
 total energy-change (2. order) :-0.3791218E+03  (-0.3556409E+03)
 number of electron     220.0000000 magnetization      60.0000000
 augmentation part      220.0000000 magnetization      60.0000000

 Free energy of the ion-electron system (eV)
  ---------------------------------------------------
  alpha Z        PSCENC =        10.83448944
  Ewald energy   TEWEN  =     59685.11185377
  -Hartree energ DENC   =    -84961.38329905
  -exchange      EXHF   =         0.00000000
  -V(xc)+E(xc)   XCENC  =       920.72973129
  PAW double counting   =     24544.34359605   -26657.91753714
  entropy T*S    EENTRO =         0.00000000
  eigenvalues    EBANDS =     -1343.76578366
  atomic energy  EATOM  =     27818.71169316
  Solvation  Ediel_sol  =         0.00000000
  ---------------------------------------------------
  free energy    TOTEN  =        16.66474386 eV

  energy without entropy =       16.66474386  energy(sigma->0) =       16.66474386


--------------------------------------------------------------------------------------------------------




--------------------------------------- Iteration      1(   4)  ---------------------------------------


     EDDAV:  cpu time   12.6600: real time   12.6699
       DOS:  cpu time    0.0000: real time    0.0004
    --------------------------------------------
      LOOP:  cpu time   12.6600: real time   12.6703

 eigenvalue-minimisations  :   880
 total energy-change (2. order) :-0.4963795E+02  (-0.4475092E+02)
 number of electron     220.0000000 magnetization      60.0000000
 augmentation part      220.0000000 magnetization      60.0000000

 Free energy of the ion-electron system (eV)
  ---------------------------------------------------
  alpha Z        PSCENC =        10.83448944
  Ewald energy   TEWEN  =     59685.11185377
  -Hartree energ DENC   =    -84961.38329905
  -exchange      EXHF   =         0.00000000
  -V(xc)+E(xc)   XCENC  =       920.72973129
  PAW double counting   =     24544.34359605   -26657.91753714
  entropy T*S    EENTRO =        -0.00000000
  eigenvalues    EBANDS =     -1393.40373068
  atomic energy  EATOM  =     27818.71169316
  Solvation  Ediel_sol  =         0.00000000
  ---------------------------------------------------
  free energy    TOTEN  =       -32.97320315 eV

  energy without entropy =      -32.97320315  energy(sigma->0) =      -32.97320315


--------------------------------------------------------------------------------------------------------




--------------------------------------- Iteration      1(   5)  ---------------------------------------


     EDDAV:  cpu time   12.4480: real time   12.4565
       DOS:  cpu time    0.0000: real time    0.0006
    CHARGE:  cpu time    0.5600: real time    0.5590
    MIXING:  cpu time    0.0200: real time    0.0206
    --------------------------------------------
      LOOP:  cpu time   13.0280: real time   13.0367

 eigenvalue-minimisations  :   864
 total energy-change (2. order) :-0.2227074E+01  (-0.2119896E+01)
 number of electron     220.0000138 magnetization      56.7727386
 augmentation part      130.3358463 magnetization      54.3700778

 Broyden mixing:
  rms(total) = 0.79760E+01    rms(broyden)= 0.79743E+01
  rms(prec ) = 0.80223E+01
  weight for this iteration     100.00

 Free energy of the ion-electron system (eV)
  ---------------------------------------------------
  alpha Z        PSCENC =        10.83448944
  Ewald energy   TEWEN  =     59685.11185377
  -Hartree energ DENC   =    -84961.38329905
  -exchange      EXHF   =         0.00000000
  -V(xc)+E(xc)   XCENC  =       920.72973129
  PAW double counting   =     24544.34359605   -26657.91753714
  entropy T*S    EENTRO =         0.00000000
  eigenvalues    EBANDS =     -1395.63080490
  atomic energy  EATOM  =     27818.71169316
  Solvation  Ediel_sol  =         0.00000000
  ---------------------------------------------------
  free energy    TOTEN  =       -35.20027738 eV

  energy without entropy =      -35.20027738  energy(sigma->0) =      -35.20027738


--------------------------------------------------------------------------------------------------------




--------------------------------------- Iteration      1(   6)  ---------------------------------------


    POTLOK:  cpu time    0.9480: real time    0.9562
    SETDIJ:  cpu time    0.0160: real time    0.0143
     EDDAV:  cpu time   10.6160: real time   10.6198
       DOS:  cpu time    0.0040: real time    0.0007
    CHARGE:  cpu time    0.5560: real time    0.5572
    MIXING:  cpu time    0.0200: real time    0.0218
    --------------------------------------------
      LOOP:  cpu time   12.1600: real time   12.1699

 eigenvalue-minimisations  :   704
 total energy-change (2. order) : 0.1465793E+03  (-0.8870833E+02)
 number of electron     220.0000151 magnetization      54.2573130
 augmentation part      151.2339834 magnetization      38.1448736

 Broyden mixing:
  rms(total) = 0.37978E+01    rms(broyden)= 0.37954E+01
  rms(prec ) = 0.38811E+01
  weight for this iteration     100.00

 eigenvalues of (default mixing * dielectric matrix)
  average eigenvalue GAMMA=   0.9439
  0.9439

 Free energy of the ion-electron system (eV)
  ---------------------------------------------------
  alpha Z        PSCENC =        10.83448944
  Ewald energy   TEWEN  =     59685.11185377
  -Hartree energ DENC   =    -84410.36216942
  -exchange      EXHF   =         0.00000000
  -V(xc)+E(xc)   XCENC  =      1004.83875889
  PAW double counting   =     24643.82502386   -26657.75410820
  entropy T*S    EENTRO =         0.00000000
  eigenvalues    EBANDS =     -1983.82647113
  atomic energy  EATOM  =     27818.71169316
  Solvation  Ediel_sol  =         0.00000000
  ---------------------------------------------------
  free energy    TOTEN  =       111.37907036 eV

  energy without entropy =      111.37907036  energy(sigma->0) =      111.37907036


--------------------------------------------------------------------------------------------------------




--------------------------------------- Iteration      1(   7)  ---------------------------------------


    POTLOK:  cpu time    0.9480: real time    0.9611
    SETDIJ:  cpu time    0.0160: real time    0.0141
     EDDAV:  cpu time   11.4760: real time   11.4755
       DOS:  cpu time    0.0000: real time    0.0006
    CHARGE:  cpu time    0.5560: real time    0.5558
    MIXING:  cpu time    0.0240: real time    0.0230
    --------------------------------------------
      LOOP:  cpu time   13.0200: real time   13.0301

 eigenvalue-minimisations  :   780
 total energy-change (2. order) :-0.2017155E+01  (-0.3461423E+02)
 number of electron     220.0000136 magnetization      51.2949508
 augmentation part      142.4537571 magnetization      32.8646713

 Broyden mixing:
  rms(total) = 0.17339E+01    rms(broyden)= 0.17331E+01
  rms(prec ) = 0.17466E+01
  weight for this iteration     100.00

 eigenvalues of (default mixing * dielectric matrix)
  average eigenvalue GAMMA=   0.8839
  1.0618  0.7060

 Free energy of the ion-electron system (eV)
  ---------------------------------------------------
  alpha Z        PSCENC =        10.83448944
  Ewald energy   TEWEN  =     59685.11185377
  -Hartree energ DENC   =    -84898.47057503
  -exchange      EXHF   =         0.00000000
  -V(xc)+E(xc)   XCENC  =      1014.39748781
  PAW double counting   =     25432.52671814   -27617.15744317
  entropy T*S    EENTRO =         0.00000000
  eigenvalues    EBANDS =     -1336.59230849
  atomic energy  EATOM  =     27818.71169316
  Solvation  Ediel_sol  =         0.00000000
  ---------------------------------------------------
  free energy    TOTEN  =       109.36191562 eV

  energy without entropy =      109.36191562  energy(sigma->0) =      109.36191562


--------------------------------------------------------------------------------------------------------




--------------------------------------- Iteration      1(   8)  ---------------------------------------


    POTLOK:  cpu time    0.9440: real time    0.9587
    SETDIJ:  cpu time    0.0160: real time    0.0143
     EDDAV:  cpu time   12.4600: real time   12.4595
       DOS:  cpu time    0.0000: real time    0.0007
    CHARGE:  cpu time    0.5600: real time    0.5588
    MIXING:  cpu time    0.0240: real time    0.0243
    --------------------------------------------
      LOOP:  cpu time   14.0040: real time   14.0164

 eigenvalue-minimisations  :   864
 total energy-change (2. order) : 0.8664255E+01  (-0.4960871E+01)
 number of electron     220.0000141 magnetization      49.6418045
 augmentation part      140.2647664 magnetization      29.3906191

 Broyden mixing:
  rms(total) = 0.15810E+01    rms(broyden)= 0.15801E+01
  rms(prec ) = 0.16168E+01
  weight for this iteration     100.00

 eigenvalues of (default mixing * dielectric matrix)
  average eigenvalue GAMMA=   0.8002
  1.0970  0.7440  0.5596

 Free energy of the ion-electron system (eV)
  ---------------------------------------------------
  alpha Z        PSCENC =        10.83448944
  Ewald energy   TEWEN  =     59685.11185377
  -Hartree energ DENC   =    -84977.03462440
  -exchange      EXHF   =         0.00000000
  -V(xc)+E(xc)   XCENC  =      1022.12102628
  PAW double counting   =     25858.52353179   -28052.56220664
  entropy T*S    EENTRO =         0.00000000
  eigenvalues    EBANDS =     -1247.67959236
  atomic energy  EATOM  =     27818.71169316
  Solvation  Ediel_sol  =         0.00000000
  ---------------------------------------------------
  free energy    TOTEN  =       118.02617103 eV

  energy without entropy =      118.02617103  energy(sigma->0) =      118.02617103


--------------------------------------------------------------------------------------------------------




--------------------------------------- Iteration      1(   9)  ---------------------------------------


    POTLOK:  cpu time    0.9440: real time    0.9573
    SETDIJ:  cpu time    0.0160: real time    0.0144
     EDDAV:  cpu time   12.2520: real time   12.2542
       DOS:  cpu time    0.0000: real time    0.0006
    CHARGE:  cpu time    0.5600: real time    0.5578
    MIXING:  cpu time    0.0240: real time    0.0256
    --------------------------------------------
      LOOP:  cpu time   13.7960: real time   13.8099

 eigenvalue-minimisations  :   848
 total energy-change (2. order) :-0.1019029E+02  (-0.1475483E+01)
 number of electron     220.0000136 magnetization      45.3717604
 augmentation part      141.4320100 magnetization      27.0157057

 Broyden mixing:
  rms(total) = 0.11118E+01    rms(broyden)= 0.11110E+01
  rms(prec ) = 0.11210E+01
  weight for this iteration     100.00

 eigenvalues of (default mixing * dielectric matrix)
  average eigenvalue GAMMA=   0.9006
  1.4597  0.9375  0.7832  0.4220

 Free energy of the ion-electron system (eV)
  ---------------------------------------------------
  alpha Z        PSCENC =        10.83448944
  Ewald energy   TEWEN  =     59685.11185377
  -Hartree energ DENC   =    -84924.99768676
  -exchange      EXHF   =         0.00000000
  -V(xc)+E(xc)   XCENC  =      1012.48587830
  PAW double counting   =     25923.65473950   -28103.27735397
  entropy T*S    EENTRO =         0.00000000
  eigenvalues    EBANDS =     -1314.68773559
  atomic energy  EATOM  =     27818.71169316
  Solvation  Ediel_sol  =         0.00000000
  ---------------------------------------------------
  free energy    TOTEN  =       107.83587784 eV

  energy without entropy =      107.83587784  energy(sigma->0) =      107.83587784


--------------------------------------------------------------------------------------------------------




--------------------------------------- Iteration      1(  10)  ---------------------------------------


    POTLOK:  cpu time    0.9480: real time    0.9570
    SETDIJ:  cpu time    0.0160: real time    0.0141
     EDDAV:  cpu time   13.9040: real time   13.9046
       DOS:  cpu time    0.0000: real time    0.0007
    CHARGE:  cpu time    0.5600: real time    0.5612
    MIXING:  cpu time    0.0280: real time    0.0272
    --------------------------------------------
      LOOP:  cpu time   15.4560: real time   15.4648

 eigenvalue-minimisations  :   992
 total energy-change (2. order) :-0.3751342E+02  (-0.1876556E+01)
 number of electron     220.0000144 magnetization      41.2822642
 augmentation part      142.0597095 magnetization      25.6630839

 Broyden mixing:
  rms(total) = 0.90410E+00    rms(broyden)= 0.90352E+00
  rms(prec ) = 0.91037E+00
  weight for this iteration     100.00

 eigenvalues of (default mixing * dielectric matrix)
  average eigenvalue GAMMA=   0.9963
  2.1090  1.1902  0.6259  0.6259  0.4305

 Free energy of the ion-electron system (eV)
  ---------------------------------------------------
  alpha Z        PSCENC =        10.83448944
  Ewald energy   TEWEN  =     59685.11185377
  -Hartree energ DENC   =    -84922.38584641
  -exchange      EXHF   =         0.00000000
  -V(xc)+E(xc)   XCENC  =       982.03635366
  PAW double counting   =     26108.38008355   -28270.60600712
  entropy T*S    EENTRO =         0.00000000
  eigenvalues    EBANDS =     -1341.76016578
  atomic energy  EATOM  =     27818.71169316
  Solvation  Ediel_sol  =         0.00000000
  ---------------------------------------------------
  free energy    TOTEN  =        70.32245426 eV

  energy without entropy =       70.32245426  energy(sigma->0) =       70.32245426


--------------------------------------------------------------------------------------------------------




--------------------------------------- Iteration      1(  11)  ---------------------------------------


    POTLOK:  cpu time    0.9480: real time    0.9582
    SETDIJ:  cpu time    0.0160: real time    0.0143
     EDDAV:  cpu time   12.3720: real time   12.3732
       DOS:  cpu time    0.0000: real time    0.0007
    CHARGE:  cpu time    0.5640: real time    0.5615
    MIXING:  cpu time    0.0280: real time    0.0284
    --------------------------------------------
      LOOP:  cpu time   13.9280: real time   13.9362

 eigenvalue-minimisations  :   856
 total energy-change (2. order) :-0.2323857E+02  (-0.1616773E+01)
 number of electron     220.0000145 magnetization      37.6843339
 augmentation part      142.0121117 magnetization      23.3269929

 Broyden mixing:
  rms(total) = 0.68727E+00    rms(broyden)= 0.68714E+00
  rms(prec ) = 0.69216E+00
  weight for this iteration     100.00

 eigenvalues of (default mixing * dielectric matrix)
  average eigenvalue GAMMA=   1.0613
  2.4404  1.5273  0.6888  0.6888  0.6137  0.4087

 Free energy of the ion-electron system (eV)
  ---------------------------------------------------
  alpha Z        PSCENC =        10.83448944
  Ewald energy   TEWEN  =     59685.11185377
  -Hartree energ DENC   =    -84936.49018529
  -exchange      EXHF   =         0.00000000
  -V(xc)+E(xc)   XCENC  =       964.79945470
  PAW double counting   =     26221.19194100   -28374.25438485
  entropy T*S    EENTRO =         0.00000000
  eigenvalues    EBANDS =     -1342.82098101
  atomic energy  EATOM  =     27818.71169316
  Solvation  Ediel_sol  =         0.00000000
  ---------------------------------------------------
  free energy    TOTEN  =        47.08388092 eV

  energy without entropy =       47.08388092  energy(sigma->0) =       47.08388092


--------------------------------------------------------------------------------------------------------




--------------------------------------- Iteration      1(  12)  ---------------------------------------


    POTLOK:  cpu time    0.9440: real time    0.9558
    SETDIJ:  cpu time    0.0160: real time    0.0143
     EDDAV:  cpu time   12.1880: real time   12.1890
       DOS:  cpu time    0.0000: real time    0.0006
    CHARGE:  cpu time    0.5640: real time    0.5633
    MIXING:  cpu time    0.0320: real time    0.0302
    --------------------------------------------
      LOOP:  cpu time   13.7440: real time   13.7533

 eigenvalue-minimisations  :   840
 total energy-change (2. order) :-0.2490663E+02  (-0.1625332E+01)
 number of electron     220.0000145 magnetization      32.9017518
 augmentation part      141.6134600 magnetization      21.5068985

 Broyden mixing:
  rms(total) = 0.57290E+00    rms(broyden)= 0.57222E+00
  rms(prec ) = 0.57804E+00
  weight for this iteration     100.00

 eigenvalues of (default mixing * dielectric matrix)
  average eigenvalue GAMMA=   1.1371
  3.2588  1.5708  0.7787  0.7787  0.7217  0.4257  0.4257

 Free energy of the ion-electron system (eV)
  ---------------------------------------------------
  alpha Z        PSCENC =        10.83448944
  Ewald energy   TEWEN  =     59685.11185377
  -Hartree energ DENC   =    -84945.46609732
  -exchange      EXHF   =         0.00000000
  -V(xc)+E(xc)   XCENC  =       946.43387073
  PAW double counting   =     26188.21615868   -28339.06722288
  entropy T*S    EENTRO =         0.00000000
  eigenvalues    EBANDS =     -1342.59749007
  atomic energy  EATOM  =     27818.71169316
  Solvation  Ediel_sol  =         0.00000000
  ---------------------------------------------------
  free energy    TOTEN  =        22.17725551 eV

  energy without entropy =       22.17725551  energy(sigma->0) =       22.17725551


--------------------------------------------------------------------------------------------------------




--------------------------------------- Iteration      1(  13)  ---------------------------------------


    POTLOK:  cpu time    0.9520: real time    0.9552
    SETDIJ:  cpu time    0.0120: real time    0.0143
     EDDAV:  cpu time   12.8560: real time   12.8533
       DOS:  cpu time    0.0000: real time    0.0007
    CHARGE:  cpu time    0.5600: real time    0.5612
    MIXING:  cpu time    0.0320: real time    0.0322
    --------------------------------------------
      LOOP:  cpu time   14.4120: real time   14.4170

 eigenvalue-minimisations  :   900
 total energy-change (2. order) :-0.2291479E+02  (-0.1708334E+01)
 number of electron     220.0000148 magnetization      28.0435468
 augmentation part      140.9988397 magnetization      19.4975522

 Broyden mixing:
  rms(total) = 0.47034E+00    rms(broyden)= 0.46958E+00
  rms(prec ) = 0.47611E+00
  weight for this iteration     100.00

 eigenvalues of (default mixing * dielectric matrix)
  average eigenvalue GAMMA=   1.2292
  4.3135  1.6305  1.0885  0.7110  0.7110  0.5505  0.4363  0.3918

 Free energy of the ion-electron system (eV)
  ---------------------------------------------------
  alpha Z        PSCENC =        10.83448944
  Ewald energy   TEWEN  =     59685.11185377
  -Hartree energ DENC   =    -84967.30509430
  -exchange      EXHF   =         0.00000000
  -V(xc)+E(xc)   XCENC  =       929.77772589
  PAW double counting   =     26185.17432985   -28336.08877763
  entropy T*S    EENTRO =         0.00000000
  eigenvalues    EBANDS =     -1326.95375224
  atomic energy  EATOM  =     27818.71169316
  Solvation  Ediel_sol  =         0.00000000
  ---------------------------------------------------
  free energy    TOTEN  =        -0.73753208 eV

  energy without entropy =       -0.73753208  energy(sigma->0) =       -0.73753208


--------------------------------------------------------------------------------------------------------




--------------------------------------- Iteration      1(  14)  ---------------------------------------


    POTLOK:  cpu time    0.9480: real time    0.9578
    SETDIJ:  cpu time    0.0160: real time    0.0137
     EDDAV:  cpu time   13.6200: real time   13.6222
       DOS:  cpu time    0.0000: real time    0.0006
    CHARGE:  cpu time    0.5600: real time    0.5576
    MIXING:  cpu time    0.0320: real time    0.0344
    --------------------------------------------
      LOOP:  cpu time   15.1760: real time   15.1864

 eigenvalue-minimisations  :   968
 total energy-change (2. order) :-0.1645460E+02  (-0.1305592E+01)
 number of electron     220.0000147 magnetization      24.6230046
 augmentation part      140.6654850 magnetization      17.1806880

 Broyden mixing:
  rms(total) = 0.37219E+00    rms(broyden)= 0.37201E+00
  rms(prec ) = 0.37809E+00
  weight for this iteration     100.00

 eigenvalues of (default mixing * dielectric matrix)
  average eigenvalue GAMMA=   1.3150
  5.2065  2.0457  0.8683  0.8683  0.7477  0.7477  0.4895  0.4086  0.4528

 Free energy of the ion-electron system (eV)
  ---------------------------------------------------
  alpha Z        PSCENC =        10.83448944
  Ewald energy   TEWEN  =     59685.11185377
  -Hartree energ DENC   =    -84982.66424791
  -exchange      EXHF   =         0.00000000
  -V(xc)+E(xc)   XCENC  =       917.12696921
  PAW double counting   =     26180.33332475   -28329.78003534
  entropy T*S    EENTRO =         0.00000000
  eigenvalues    EBANDS =     -1316.86617441
  atomic energy  EATOM  =     27818.71169316
  Solvation  Ediel_sol  =         0.00000000
  ---------------------------------------------------
  free energy    TOTEN  =       -17.19212733 eV

  energy without entropy =      -17.19212733  energy(sigma->0) =      -17.19212733


--------------------------------------------------------------------------------------------------------




--------------------------------------- Iteration      1(  15)  ---------------------------------------


    POTLOK:  cpu time    0.9480: real time    0.9544
    SETDIJ:  cpu time    0.0120: real time    0.0138
     EDDAV:  cpu time   12.6200: real time   12.6174
       DOS:  cpu time    0.0000: real time    0.0006
    CHARGE:  cpu time    0.5560: real time    0.5572
    MIXING:  cpu time    0.0400: real time    0.0380
    --------------------------------------------
      LOOP:  cpu time   14.1760: real time   14.1813

 eigenvalue-minimisations  :   880
 total energy-change (2. order) :-0.1382157E+02  (-0.1019208E+01)
 number of electron     220.0000148 magnetization      21.9749698
 augmentation part      140.8465009 magnetization      17.1461107

 Broyden mixing:
  rms(total) = 0.30490E+00    rms(broyden)= 0.30408E+00
  rms(prec ) = 0.31055E+00
  weight for this iteration     100.00

 eigenvalues of (default mixing * dielectric matrix)
  average eigenvalue GAMMA=   1.3134
  5.8852  2.1721  0.8536  0.8536  0.8634  0.6386  0.6386  0.4375  0.4158  0.3759

 Free energy of the ion-electron system (eV)
  ---------------------------------------------------
  alpha Z        PSCENC =        10.83448944
  Ewald energy   TEWEN  =     59685.11185377
  -Hartree energ DENC   =    -84964.45315400
  -exchange      EXHF   =         0.00000000
  -V(xc)+E(xc)   XCENC  =       905.82350985
  PAW double counting   =     26096.81888640   -28241.38558491
  entropy T*S    EENTRO =         0.00000000
  eigenvalues    EBANDS =     -1342.47539452
  atomic energy  EATOM  =     27818.71169316
  Solvation  Ediel_sol  =         0.00000000
  ---------------------------------------------------
  free energy    TOTEN  =       -31.01370082 eV

  energy without entropy =      -31.01370082  energy(sigma->0) =      -31.01370082


--------------------------------------------------------------------------------------------------------




--------------------------------------- Iteration      1(  16)  ---------------------------------------


    POTLOK:  cpu time    0.9480: real time    0.9609
    SETDIJ:  cpu time    0.0160: real time    0.0142
     EDDAV:  cpu time   12.8920: real time   12.8926
       DOS:  cpu time    0.0000: real time    0.0006
    CHARGE:  cpu time    0.5560: real time    0.5548
    MIXING:  cpu time    0.0400: real time    0.0433
    --------------------------------------------
      LOOP:  cpu time   14.4520: real time   14.4664

 eigenvalue-minimisations  :   904
 total energy-change (2. order) :-0.6098365E+01  (-0.4029396E+00)
 number of electron     220.0000146 magnetization      20.3826970
 augmentation part      140.9469648 magnetization      16.1783512

 Broyden mixing:
  rms(total) = 0.24071E+00    rms(broyden)= 0.24061E+00
  rms(prec ) = 0.24558E+00
  weight for this iteration     100.00

 eigenvalues of (default mixing * dielectric matrix)
  average eigenvalue GAMMA=   1.3659
  6.3819  2.4205  1.0612  1.0612  0.8225  0.8225  0.5948  0.5948  0.3989  0.4336
  0.4336

 Free energy of the ion-electron system (eV)
  ---------------------------------------------------
  alpha Z        PSCENC =        10.83448944
  Ewald energy   TEWEN  =     59685.11185377
  -Hartree energ DENC   =    -84954.85527889
  -exchange      EXHF   =         0.00000000
  -V(xc)+E(xc)   XCENC  =       900.73966532
  PAW double counting   =     26048.04412965   -28191.12455238
  entropy T*S    EENTRO =         0.00000000
  eigenvalues    EBANDS =     -1354.57406628
  atomic energy  EATOM  =     27818.71169316
  Solvation  Ediel_sol  =         0.00000000
  ---------------------------------------------------
  free energy    TOTEN  =       -37.11206621 eV

  energy without entropy =      -37.11206621  energy(sigma->0) =      -37.11206621


--------------------------------------------------------------------------------------------------------




--------------------------------------- Iteration      1(  17)  ---------------------------------------


    POTLOK:  cpu time    0.9520: real time    0.9573
    SETDIJ:  cpu time    0.0120: real time    0.0140
     EDDAV:  cpu time   12.8520: real time   12.8521
       DOS:  cpu time    0.0000: real time    0.0006
    CHARGE:  cpu time    0.5600: real time    0.5600
    MIXING:  cpu time    0.0520: real time    0.0504
    --------------------------------------------
      LOOP:  cpu time   14.4280: real time   14.4344

 eigenvalue-minimisations  :   904
 total energy-change (2. order) :-0.3621304E+01  (-0.1338256E+00)
 number of electron     220.0000149 magnetization      18.1480195
 augmentation part      140.9827491 magnetization      15.8217356

 Broyden mixing:
  rms(total) = 0.26887E+00    rms(broyden)= 0.26813E+00
  rms(prec ) = 0.27495E+00
  weight for this iteration     100.00

 eigenvalues of (default mixing * dielectric matrix)
  average eigenvalue GAMMA=   1.3240
  6.9055  2.4027  1.0196  1.0196  0.8846  0.8846  0.6226  0.6226  0.4373  0.4373
  0.4061  0.2457

 Free energy of the ion-electron system (eV)
  ---------------------------------------------------
  alpha Z        PSCENC =        10.83448944
  Ewald energy   TEWEN  =     59685.11185377
  -Hartree energ DENC   =    -84940.73502511
  -exchange      EXHF   =         0.00000000
  -V(xc)+E(xc)   XCENC  =       897.64265535
  PAW double counting   =     26001.41783680   -28145.15478064
  entropy T*S    EENTRO =         0.00000000
  eigenvalues    EBANDS =     -1368.56209304
  atomic energy  EATOM  =     27818.71169316
  Solvation  Ediel_sol  =         0.00000000
  ---------------------------------------------------
  free energy    TOTEN  =       -40.73337028 eV

  energy without entropy =      -40.73337028  energy(sigma->0) =      -40.73337028


--------------------------------------------------------------------------------------------------------




--------------------------------------- Iteration      1(  18)  ---------------------------------------


    POTLOK:  cpu time    0.9520: real time    0.9568
    SETDIJ:  cpu time    0.0160: real time    0.0145
     EDDAV:  cpu time   13.6080: real time   13.6105
       DOS:  cpu time    0.0040: real time    0.0006
    CHARGE:  cpu time    0.5560: real time    0.5595
    MIXING:  cpu time    0.0600: real time    0.0598
    --------------------------------------------
      LOOP:  cpu time   15.1960: real time   15.2017

 eigenvalue-minimisations  :   968
 total energy-change (2. order) :-0.2140473E+01  (-0.5815484E-01)
 number of electron     220.0000148 magnetization      15.9934307
 augmentation part      140.9940574 magnetization      13.9068085

 Broyden mixing:
  rms(total) = 0.19201E+00    rms(broyden)= 0.19195E+00
  rms(prec ) = 0.19629E+00
  weight for this iteration     100.00

 eigenvalues of (default mixing * dielectric matrix)
  average eigenvalue GAMMA=   1.3865
  7.7595  2.3624  1.0664  1.0664  1.0591  1.0591  0.6775  0.6775  0.5898  0.4594
  0.4594  0.3994  0.3889

 Free energy of the ion-electron system (eV)
  ---------------------------------------------------
  alpha Z        PSCENC =        10.83448944
  Ewald energy   TEWEN  =     59685.11185377
  -Hartree energ DENC   =    -84936.72569282
  -exchange      EXHF   =         0.00000000
  -V(xc)+E(xc)   XCENC  =       895.72587386
  PAW double counting   =     25987.92005697   -28132.52652997
  entropy T*S    EENTRO =         0.00000000
  eigenvalues    EBANDS =     -1371.92558802
  atomic energy  EATOM  =     27818.71169316
  Solvation  Ediel_sol  =         0.00000000
  ---------------------------------------------------
  free energy    TOTEN  =       -42.87384363 eV

  energy without entropy =      -42.87384363  energy(sigma->0) =      -42.87384363


--------------------------------------------------------------------------------------------------------




--------------------------------------- Iteration      1(  19)  ---------------------------------------


    POTLOK:  cpu time    0.9480: real time    0.9561
    SETDIJ:  cpu time    0.0120: real time    0.0143
     EDDAV:  cpu time   12.3960: real time   12.3932
       DOS:  cpu time    0.0000: real time    0.0007
    CHARGE:  cpu time    0.5560: real time    0.5567
    MIXING:  cpu time    0.0680: real time    0.0670
    --------------------------------------------
      LOOP:  cpu time   13.9800: real time   13.9879

 eigenvalue-minimisations  :   864
 total energy-change (2. order) :-0.2472591E+01  (-0.5413763E-01)
 number of electron     220.0000147 magnetization      12.7126328
 augmentation part      140.9643905 magnetization      10.7720065

 Broyden mixing:
  rms(total) = 0.14389E+00    rms(broyden)= 0.14386E+00
  rms(prec ) = 0.14756E+00
  weight for this iteration     100.00

 eigenvalues of (default mixing * dielectric matrix)
  average eigenvalue GAMMA=   1.4827
  9.0760  2.4535  1.8613  1.0823  0.9682  0.9682  0.7206  0.7206  0.6717  0.5770
  0.4356  0.4356  0.3939  0.3939

 Free energy of the ion-electron system (eV)
  ---------------------------------------------------
  alpha Z        PSCENC =        10.83448944
  Ewald energy   TEWEN  =     59685.11185377
  -Hartree energ DENC   =    -84928.45564463
  -exchange      EXHF   =         0.00000000
  -V(xc)+E(xc)   XCENC  =       893.44244615
  PAW double counting   =     25965.31549372   -28111.42555517
  entropy T*S    EENTRO =         0.00000000
  eigenvalues    EBANDS =     -1378.88121132
  atomic energy  EATOM  =     27818.71169316
  Solvation  Ediel_sol  =         0.00000000
  ---------------------------------------------------
  free energy    TOTEN  =       -45.34643489 eV

  energy without entropy =      -45.34643489  energy(sigma->0) =      -45.34643489


--------------------------------------------------------------------------------------------------------




--------------------------------------- Iteration      1(  20)  ---------------------------------------


    POTLOK:  cpu time    0.9480: real time    0.9600
    SETDIJ:  cpu time    0.0120: real time    0.0146
     EDDAV:  cpu time   13.2440: real time   13.2420
       DOS:  cpu time    0.0000: real time    0.0007
    CHARGE:  cpu time    0.5640: real time    0.5649
    MIXING:  cpu time    0.0760: real time    0.0743
    --------------------------------------------
      LOOP:  cpu time   14.8440: real time   14.8565

 eigenvalue-minimisations  :   936
 total energy-change (2. order) :-0.2785103E+01  (-0.5712422E-01)
 number of electron     220.0000144 magnetization      11.8366812
 augmentation part      141.0341633 magnetization      11.6511583

 Broyden mixing:
  rms(total) = 0.21002E+00    rms(broyden)= 0.20899E+00
  rms(prec ) = 0.21429E+00
  weight for this iteration     100.00

 eigenvalues of (default mixing * dielectric matrix)
  average eigenvalue GAMMA=   1.4200
  9.3807  2.2161  2.2161  1.0583  1.0583  0.8149  0.8149  0.6890  0.6890  0.5492
  0.4374  0.4374  0.3948  0.3948  0.1490

 Free energy of the ion-electron system (eV)
  ---------------------------------------------------
  alpha Z        PSCENC =        10.83448944
  Ewald energy   TEWEN  =     59685.11185377
  -Hartree energ DENC   =    -84914.93552345
  -exchange      EXHF   =         0.00000000
  -V(xc)+E(xc)   XCENC  =       890.72587074
  PAW double counting   =     25935.03452659   -28082.37913321
  entropy T*S    EENTRO =         0.00000000
  eigenvalues    EBANDS =     -1391.23531455
  atomic energy  EATOM  =     27818.71169316
  Solvation  Ediel_sol  =         0.00000000
  ---------------------------------------------------
  free energy    TOTEN  =       -48.13153752 eV

  energy without entropy =      -48.13153752  energy(sigma->0) =      -48.13153752


--------------------------------------------------------------------------------------------------------




--------------------------------------- Iteration      1(  21)  ---------------------------------------


    POTLOK:  cpu time    0.9520: real time    0.9591
    SETDIJ:  cpu time    0.0160: real time    0.0143
     EDDAV:  cpu time   13.1080: real time   13.1079
       DOS:  cpu time    0.0000: real time    0.0006
    CHARGE:  cpu time    0.5640: real time    0.5627
    MIXING:  cpu time    0.0800: real time    0.0815
    --------------------------------------------
      LOOP:  cpu time   14.7200: real time   14.7262

 eigenvalue-minimisations  :   928
 total energy-change (2. order) : 0.1185372E-01  (-0.1029294E-01)
 number of electron     220.0000145 magnetization      10.9133752
 augmentation part      141.0471238 magnetization      10.7922204

 Broyden mixing:
  rms(total) = 0.16733E+00    rms(broyden)= 0.16728E+00
  rms(prec ) = 0.17223E+00
  weight for this iteration     100.00

 eigenvalues of (default mixing * dielectric matrix)
  average eigenvalue GAMMA=   1.4274
  9.7849  2.2741  2.2741  1.1062  1.1062  0.8581  0.7155  0.7155  0.6033  0.6033
  0.5878  0.5878  0.4187  0.4187  0.3924  0.3924

 Free energy of the ion-electron system (eV)
  ---------------------------------------------------
  alpha Z        PSCENC =        10.83448944
  Ewald energy   TEWEN  =     59685.11185377
  -Hartree energ DENC   =    -84915.53030595
  -exchange      EXHF   =         0.00000000
  -V(xc)+E(xc)   XCENC  =       890.74119574
  PAW double counting   =     25938.52424052   -28086.12527073
  entropy T*S    EENTRO =         0.00000000
  eigenvalues    EBANDS =     -1390.38757975
  atomic energy  EATOM  =     27818.71169316
  Solvation  Ediel_sol  =         0.00000000
  ---------------------------------------------------
  free energy    TOTEN  =       -48.11968380 eV

  energy without entropy =      -48.11968380  energy(sigma->0) =      -48.11968380


--------------------------------------------------------------------------------------------------------




--------------------------------------- Iteration      1(  22)  ---------------------------------------


    POTLOK:  cpu time    0.9480: real time    0.9595
    SETDIJ:  cpu time    0.0120: real time    0.0144
     EDDAV:  cpu time   11.5920: real time   11.5901
       DOS:  cpu time    0.0000: real time    0.0006
    CHARGE:  cpu time    0.5640: real time    0.5657
    MIXING:  cpu time    0.0920: real time    0.0889
    --------------------------------------------
      LOOP:  cpu time   13.2080: real time   13.2192

 eigenvalue-minimisations  :   792
 total energy-change (2. order) :-0.3567320E+00  (-0.4851428E-02)
 number of electron     220.0000145 magnetization       8.3306689
 augmentation part      140.9868376 magnetization       8.2435822

 Broyden mixing:
  rms(total) = 0.13379E+00    rms(broyden)= 0.13378E+00
  rms(prec ) = 0.13805E+00
  weight for this iteration     100.00

 eigenvalues of (default mixing * dielectric matrix)
  average eigenvalue GAMMA=   1.4964
 10.6305  2.4964  2.4964  1.1970  1.0784  1.0784  0.9603  0.9603  0.6851  0.6851
  0.5300  0.5300  0.5083  0.4100  0.4100  0.3909  0.3909

 Free energy of the ion-electron system (eV)
  ---------------------------------------------------
  alpha Z        PSCENC =        10.83448944
  Ewald energy   TEWEN  =     59685.11185377
  -Hartree energ DENC   =    -84917.05221200
  -exchange      EXHF   =         0.00000000
  -V(xc)+E(xc)   XCENC  =       890.47866990
  PAW double counting   =     25943.16767717   -28091.44388316
  entropy T*S    EENTRO =        -0.00000000
  eigenvalues    EBANDS =     -1388.28470405
  atomic energy  EATOM  =     27818.71169316
  Solvation  Ediel_sol  =         0.00000000
  ---------------------------------------------------
  free energy    TOTEN  =       -48.47641578 eV

  energy without entropy =      -48.47641578  energy(sigma->0) =      -48.47641578


--------------------------------------------------------------------------------------------------------




--------------------------------------- Iteration      1(  23)  ---------------------------------------


    POTLOK:  cpu time    0.9480: real time    0.9604
    SETDIJ:  cpu time    0.0120: real time    0.0143
     EDDAV:  cpu time   13.5600: real time   13.5585
       DOS:  cpu time    0.0000: real time    0.0007
    CHARGE:  cpu time    0.5640: real time    0.5618
    MIXING:  cpu time    0.0960: real time    0.0967
    --------------------------------------------
      LOOP:  cpu time   15.1800: real time   15.1924

 eigenvalue-minimisations  :   968
 total energy-change (2. order) :-0.1230114E+01  (-0.1441450E-01)
 number of electron     220.0000145 magnetization       6.0473509
 augmentation part      140.9168026 magnetization       6.0219632

 Broyden mixing:
  rms(total) = 0.70838E-01    rms(broyden)= 0.70810E-01
  rms(prec ) = 0.72333E-01
  weight for this iteration     100.00

 eigenvalues of (default mixing * dielectric matrix)
  average eigenvalue GAMMA=   1.5566
 11.6580  2.7087  2.7087  1.3591  1.2506  1.2506  0.9558  0.8816  0.8816  0.6093
  0.6093  0.5448  0.5054  0.5054  0.4032  0.4032  0.3917  0.3917

 Free energy of the ion-electron system (eV)
  ---------------------------------------------------
  alpha Z        PSCENC =        10.83448944
  Ewald energy   TEWEN  =     59685.11185377
  -Hartree energ DENC   =    -84913.35424807
  -exchange      EXHF   =         0.00000000
  -V(xc)+E(xc)   XCENC  =       889.31069323
  PAW double counting   =     25943.61247045   -28092.52652175
  entropy T*S    EENTRO =         0.00000000
  eigenvalues    EBANDS =     -1391.40695959
  atomic energy  EATOM  =     27818.71169316
  Solvation  Ediel_sol  =         0.00000000
  ---------------------------------------------------
  free energy    TOTEN  =       -49.70652937 eV

  energy without entropy =      -49.70652937  energy(sigma->0) =      -49.70652937


--------------------------------------------------------------------------------------------------------




--------------------------------------- Iteration      1(  24)  ---------------------------------------


    POTLOK:  cpu time    0.9480: real time    0.9614
    SETDIJ:  cpu time    0.0120: real time    0.0137
     EDDAV:  cpu time   12.3640: real time   12.3625
       DOS:  cpu time    0.0000: real time    0.0006
    CHARGE:  cpu time    0.5600: real time    0.5611
    MIXING:  cpu time    0.1040: real time    0.1044
    --------------------------------------------
      LOOP:  cpu time   13.9880: real time   14.0037

 eigenvalue-minimisations  :   860
 total energy-change (2. order) :-0.1001317E+01  (-0.1323656E-01)
 number of electron     220.0000146 magnetization       5.5574216
 augmentation part      140.9915892 magnetization       5.5901627

 Broyden mixing:
  rms(total) = 0.68562E-01    rms(broyden)= 0.68549E-01
  rms(prec ) = 0.69844E-01
  weight for this iteration     100.00

 eigenvalues of (default mixing * dielectric matrix)
  average eigenvalue GAMMA=   1.5492
 11.9316  3.0362  2.0882  2.0882  1.1636  1.1636  0.9997  0.9997  0.7521  0.7521
  0.6764  0.6764  0.5378  0.4866  0.4866  0.4073  0.4073  0.3911  0.3911

 Free energy of the ion-electron system (eV)
  ---------------------------------------------------
  alpha Z        PSCENC =        10.83448944
  Ewald energy   TEWEN  =     59685.11185377
  -Hartree energ DENC   =    -84901.78667694
  -exchange      EXHF   =         0.00000000
  -V(xc)+E(xc)   XCENC  =       888.12891760
  PAW double counting   =     25933.34807454   -28081.54798486
  entropy T*S    EENTRO =         0.00000000
  eigenvalues    EBANDS =     -1403.50821311
  atomic energy  EATOM  =     27818.71169316
  Solvation  Ediel_sol  =         0.00000000
  ---------------------------------------------------
  free energy    TOTEN  =       -50.70784640 eV

  energy without entropy =      -50.70784640  energy(sigma->0) =      -50.70784640


--------------------------------------------------------------------------------------------------------




--------------------------------------- Iteration      1(  25)  ---------------------------------------


    POTLOK:  cpu time    0.9600: real time    0.9654
    SETDIJ:  cpu time    0.0160: real time    0.0137
     EDDAV:  cpu time   11.5720: real time   11.5717
       DOS:  cpu time    0.0000: real time    0.0007
    CHARGE:  cpu time    0.5600: real time    0.5620
    MIXING:  cpu time    0.1120: real time    0.1131
    --------------------------------------------
      LOOP:  cpu time   13.2240: real time   13.2266

 eigenvalue-minimisations  :   792
 total energy-change (2. order) :-0.3194355E+00  (-0.2384637E-02)
 number of electron     220.0000145 magnetization       4.8940789
 augmentation part      141.0068712 magnetization       4.9084379

 Broyden mixing:
  rms(total) = 0.54655E-01    rms(broyden)= 0.54651E-01
  rms(prec ) = 0.55717E-01
  weight for this iteration     100.00

 eigenvalues of (default mixing * dielectric matrix)
  average eigenvalue GAMMA=   1.5654
 12.1558  3.6844  2.2118  2.2118  1.1068  1.1068  1.1163  1.1163  0.8362  0.8362
  0.6192  0.6192  0.6149  0.4987  0.4987  0.4763  0.4066  0.4066  0.3929  0.3929

 Free energy of the ion-electron system (eV)
  ---------------------------------------------------
  alpha Z        PSCENC =        10.83448944
  Ewald energy   TEWEN  =     59685.11185377
  -Hartree energ DENC   =    -84897.48999928
  -exchange      EXHF   =         0.00000000
  -V(xc)+E(xc)   XCENC  =       887.77536634
  PAW double counting   =     25933.21379342   -28081.07958675
  entropy T*S    EENTRO =         0.00000000
  eigenvalues    EBANDS =     -1408.10489199
  atomic energy  EATOM  =     27818.71169316
  Solvation  Ediel_sol  =         0.00000000
  ---------------------------------------------------
  free energy    TOTEN  =       -51.02728190 eV

  energy without entropy =      -51.02728190  energy(sigma->0) =      -51.02728190


--------------------------------------------------------------------------------------------------------




--------------------------------------- Iteration      1(  26)  ---------------------------------------


    POTLOK:  cpu time    0.9520: real time    0.9598
    SETDIJ:  cpu time    0.0160: real time    0.0146
     EDDAV:  cpu time   12.7160: real time   12.7162
       DOS:  cpu time    0.0000: real time    0.0008
    CHARGE:  cpu time    0.5640: real time    0.5665
    MIXING:  cpu time    0.1240: real time    0.1212
    --------------------------------------------
      LOOP:  cpu time   14.3680: real time   14.3791

 eigenvalue-minimisations  :   888
 total energy-change (2. order) :-0.3594089E+00  (-0.1594432E-02)
 number of electron     220.0000146 magnetization       3.5247609
 augmentation part      141.0138953 magnetization       3.5268922

 Broyden mixing:
  rms(total) = 0.40084E-01    rms(broyden)= 0.40081E-01
  rms(prec ) = 0.40760E-01
  weight for this iteration     100.00

 eigenvalues of (default mixing * dielectric matrix)
  average eigenvalue GAMMA=   1.6054
 12.4791  4.4471  2.2924  2.2924  1.2071  1.2071  1.2816  0.9663  0.9663  0.8262
  0.8262  0.6516  0.6516  0.5501  0.5020  0.5020  0.4627  0.4073  0.4073  0.3931
  0.3931

 Free energy of the ion-electron system (eV)
  ---------------------------------------------------
  alpha Z        PSCENC =        10.83448944
  Ewald energy   TEWEN  =     59685.11185377
  -Hartree energ DENC   =    -84893.48200033
  -exchange      EXHF   =         0.00000000
  -V(xc)+E(xc)   XCENC  =       887.40236770
  PAW double counting   =     25934.57860237   -28082.23206260
  entropy T*S    EENTRO =         0.00000000
  eigenvalues    EBANDS =     -1412.31163427
  atomic energy  EATOM  =     27818.71169316
  Solvation  Ediel_sol  =         0.00000000
  ---------------------------------------------------
  free energy    TOTEN  =       -51.38669076 eV

  energy without entropy =      -51.38669076  energy(sigma->0) =      -51.38669076


--------------------------------------------------------------------------------------------------------




--------------------------------------- Iteration      1(  27)  ---------------------------------------


    POTLOK:  cpu time    0.9440: real time    0.9540
    SETDIJ:  cpu time    0.0160: real time    0.0148
     EDDAV:  cpu time   12.9560: real time   12.9569
       DOS:  cpu time    0.0000: real time    0.0007
    CHARGE:  cpu time    0.5720: real time    0.5691
    MIXING:  cpu time    0.1280: real time    0.1304
    --------------------------------------------
      LOOP:  cpu time   14.6160: real time   14.6257

 eigenvalue-minimisations  :   912
 total energy-change (2. order) :-0.5913701E+00  (-0.1875883E-02)
 number of electron     220.0000146 magnetization       2.6170032
 augmentation part      140.9927161 magnetization       2.6176144

 Broyden mixing:
  rms(total) = 0.29610E-01    rms(broyden)= 0.29606E-01
  rms(prec ) = 0.30153E-01
  weight for this iteration     100.00

 eigenvalues of (default mixing * dielectric matrix)
  average eigenvalue GAMMA=   1.6550
 12.8990  5.4153  2.2110  2.2110  1.9659  1.1378  1.1378  1.1226  1.1226  0.8436
  0.8436  0.6873  0.6313  0.6313  0.4979  0.4979  0.5117  0.4084  0.4084  0.3931
  0.3931  0.4384

 Free energy of the ion-electron system (eV)
  ---------------------------------------------------
  alpha Z        PSCENC =        10.83448944
  Ewald energy   TEWEN  =     59685.11185377
  -Hartree energ DENC   =    -84888.38248999
  -exchange      EXHF   =         0.00000000
  -V(xc)+E(xc)   XCENC  =       886.83507094
  PAW double counting   =     25940.48466463   -28088.21842508
  entropy T*S    EENTRO =         0.00000000
  eigenvalues    EBANDS =     -1417.35491770
  atomic energy  EATOM  =     27818.71169316
  Solvation  Ediel_sol  =         0.00000000
  ---------------------------------------------------
  free energy    TOTEN  =       -51.97806084 eV

  energy without entropy =      -51.97806084  energy(sigma->0) =      -51.97806084


--------------------------------------------------------------------------------------------------------




--------------------------------------- Iteration      1(  28)  ---------------------------------------


    POTLOK:  cpu time    0.9480: real time    0.9558
    SETDIJ:  cpu time    0.0120: real time    0.0142
     EDDAV:  cpu time   11.1680: real time   11.1680
       DOS:  cpu time    0.0040: real time    0.0006
    CHARGE:  cpu time    0.5640: real time    0.5661
    MIXING:  cpu time    0.1400: real time    0.1394
    --------------------------------------------
      LOOP:  cpu time   12.8360: real time   12.8442

 eigenvalue-minimisations  :   752
 total energy-change (2. order) :-0.3609775E+00  (-0.4369956E-03)
 number of electron     220.0000146 magnetization       1.9219776
 augmentation part      140.9856251 magnetization       1.9221869

 Broyden mixing:
  rms(total) = 0.24969E-01    rms(broyden)= 0.24966E-01
  rms(prec ) = 0.25456E-01
  weight for this iteration     100.00

 eigenvalues of (default mixing * dielectric matrix)
  average eigenvalue GAMMA=   1.6847
 13.2292  6.2083  2.3005  2.3005  2.1298  1.1565  1.1565  1.1481  1.1481  0.8835
  0.8835  0.7215  0.6618  0.6618  0.6311  0.5005  0.5005  0.4964  0.4075  0.4075
  0.3932  0.3932  0.4279

 Free energy of the ion-electron system (eV)
  ---------------------------------------------------
  alpha Z        PSCENC =        10.83448944
  Ewald energy   TEWEN  =     59685.11185377
  -Hartree energ DENC   =    -84885.19189754
  -exchange      EXHF   =         0.00000000
  -V(xc)+E(xc)   XCENC  =       886.46700613
  PAW double counting   =     25943.61894153   -28091.44960176
  entropy T*S    EENTRO =         0.00000000
  eigenvalues    EBANDS =     -1420.44152303
  atomic energy  EATOM  =     27818.71169316
  Solvation  Ediel_sol  =         0.00000000
  ---------------------------------------------------
  free energy    TOTEN  =       -52.33903830 eV

  energy without entropy =      -52.33903830  energy(sigma->0) =      -52.33903830


--------------------------------------------------------------------------------------------------------




--------------------------------------- Iteration      1(  29)  ---------------------------------------


    POTLOK:  cpu time    0.9480: real time    0.9564
    SETDIJ:  cpu time    0.0160: real time    0.0147
     EDDAV:  cpu time   12.9560: real time   12.9584
       DOS:  cpu time    0.0000: real time    0.0007
    CHARGE:  cpu time    0.5680: real time    0.5661
    MIXING:  cpu time    0.1480: real time    0.1486
    --------------------------------------------
      LOOP:  cpu time   14.6360: real time   14.6449

 eigenvalue-minimisations  :   912
 total energy-change (2. order) :-0.2546706E+00  (-0.3057550E-03)
 number of electron     220.0000146 magnetization       1.2518976
 augmentation part      140.9931327 magnetization       1.2530933

 Broyden mixing:
  rms(total) = 0.16856E-01    rms(broyden)= 0.16854E-01
  rms(prec ) = 0.17182E-01
  weight for this iteration     100.00

 eigenvalues of (default mixing * dielectric matrix)
  average eigenvalue GAMMA=   1.7409
 13.4766  7.2330  2.7701  2.2236  2.2236  1.6684  1.1376  1.1376  1.0765  1.0765
  0.8606  0.8606  0.7211  0.6367  0.6367  0.5004  0.5004  0.5043  0.5043  0.4078
  0.4078  0.3929  0.3929  0.4318

 Free energy of the ion-electron system (eV)
  ---------------------------------------------------
  alpha Z        PSCENC =        10.83448944
  Ewald energy   TEWEN  =     59685.11185377
  -Hartree energ DENC   =    -84882.35701626
  -exchange      EXHF   =         0.00000000
  -V(xc)+E(xc)   XCENC  =       886.17814196
  PAW double counting   =     25944.91525716   -28092.62492682
  entropy T*S    EENTRO =         0.00000000
  eigenvalues    EBANDS =     -1423.36320128
  atomic energy  EATOM  =     27818.71169316
  Solvation  Ediel_sol  =         0.00000000
  ---------------------------------------------------
  free energy    TOTEN  =       -52.59370887 eV

  energy without entropy =      -52.59370887  energy(sigma->0) =      -52.59370887


--------------------------------------------------------------------------------------------------------




--------------------------------------- Iteration      1(  30)  ---------------------------------------


    POTLOK:  cpu time    0.9480: real time    0.9592
    SETDIJ:  cpu time    0.0160: real time    0.0145
     EDDAV:  cpu time   12.6160: real time   12.6165
       DOS:  cpu time    0.0000: real time    0.0006
    CHARGE:  cpu time    0.5680: real time    0.5667
    MIXING:  cpu time    0.1560: real time    0.1591
    --------------------------------------------
      LOOP:  cpu time   14.3040: real time   14.3167

 eigenvalue-minimisations  :   880
 total energy-change (2. order) :-0.2044240E+00  (-0.2541736E-03)
 number of electron     220.0000146 magnetization       0.9222617
 augmentation part      141.0106524 magnetization       0.9217408

 Broyden mixing:
  rms(total) = 0.12119E-01    rms(broyden)= 0.12116E-01
  rms(prec ) = 0.12420E-01
  weight for this iteration     100.00

 eigenvalues of (default mixing * dielectric matrix)
  average eigenvalue GAMMA=   1.7778
 13.6196  8.2903  3.3006  2.2932  2.2932  1.4463  1.1412  1.1412  1.1980  1.1980
  0.8684  0.8684  0.7292  0.7292  0.6521  0.6521  0.5012  0.5012  0.4944  0.4944
  0.4078  0.4078  0.3930  0.3930  0.4323

 Free energy of the ion-electron system (eV)
  ---------------------------------------------------
  alpha Z        PSCENC =        10.83448944
  Ewald energy   TEWEN  =     59685.11185377
  -Hartree energ DENC   =    -84879.88136782
  -exchange      EXHF   =         0.00000000
  -V(xc)+E(xc)   XCENC  =       885.93585283
  PAW double counting   =     25945.46112319   -28093.00351280
  entropy T*S    EENTRO =         0.00000000
  eigenvalues    EBANDS =     -1425.96826462
  atomic energy  EATOM  =     27818.71169316
  Solvation  Ediel_sol  =         0.00000000
  ---------------------------------------------------
  free energy    TOTEN  =       -52.79813286 eV

  energy without entropy =      -52.79813286  energy(sigma->0) =      -52.79813286


--------------------------------------------------------------------------------------------------------




--------------------------------------- Iteration      1(  31)  ---------------------------------------


    POTLOK:  cpu time    0.9480: real time    0.9565
    SETDIJ:  cpu time    0.0160: real time    0.0144
     EDDAV:  cpu time   11.7160: real time   11.7148
       DOS:  cpu time    0.0000: real time    0.0007
    CHARGE:  cpu time    0.5680: real time    0.5666
    MIXING:  cpu time    0.1640: real time    0.1660
    --------------------------------------------
      LOOP:  cpu time   13.4120: real time   13.4191

 eigenvalue-minimisations  :   804
 total energy-change (2. order) :-0.7657768E-01  (-0.9790552E-04)
 number of electron     220.0000146 magnetization       0.6414443
 augmentation part      141.0089605 magnetization       0.6370452

 Broyden mixing:
  rms(total) = 0.10572E-01    rms(broyden)= 0.10571E-01
  rms(prec ) = 0.10827E-01
  weight for this iteration     100.00

 eigenvalues of (default mixing * dielectric matrix)
  average eigenvalue GAMMA=   1.8061
 13.8569  9.0854  3.6719  2.2654  2.2654  1.5398  1.5398  1.1540  1.1540  1.0184
  1.0184  0.8772  0.8772  0.7896  0.6333  0.6333  0.5735  0.4998  0.4998  0.4885
  0.4885  0.4078  0.4078  0.3932  0.3932  0.4261

 Free energy of the ion-electron system (eV)
  ---------------------------------------------------
  alpha Z        PSCENC =        10.83448944
  Ewald energy   TEWEN  =     59685.11185377
  -Hartree energ DENC   =    -84879.44210444
  -exchange      EXHF   =         0.00000000
  -V(xc)+E(xc)   XCENC  =       885.86687145
  PAW double counting   =     25945.98847059   -28093.59743630
  entropy T*S    EENTRO =         0.00000000
  eigenvalues    EBANDS =     -1426.34854820
  atomic energy  EATOM  =     27818.71169316
  Solvation  Ediel_sol  =         0.00000000
  ---------------------------------------------------
  free energy    TOTEN  =       -52.87471054 eV

  energy without entropy =      -52.87471054  energy(sigma->0) =      -52.87471054


--------------------------------------------------------------------------------------------------------




--------------------------------------- Iteration      1(  32)  ---------------------------------------


    POTLOK:  cpu time    0.9480: real time    0.9625
    SETDIJ:  cpu time    0.0160: real time    0.0147
     EDDAV:  cpu time   12.5280: real time   12.5282
       DOS:  cpu time    0.0000: real time    0.0006
    CHARGE:  cpu time    0.5680: real time    0.5677
    MIXING:  cpu time    0.1720: real time    0.1717
    --------------------------------------------
      LOOP:  cpu time   14.2320: real time   14.2455

 eigenvalue-minimisations  :   872
 total energy-change (2. order) :-0.5747903E-01  (-0.6944843E-04)
 number of electron     220.0000146 magnetization       0.3746568
 augmentation part      141.0017778 magnetization       0.3701010

 Broyden mixing:
  rms(total) = 0.76652E-02    rms(broyden)= 0.76641E-02
  rms(prec ) = 0.78190E-02
[...]
 -0.007   0.001  -0.008 -10.811  -0.024   0.006  -0.001   0.006
  0.004   0.013   0.006  -0.024 -10.821  -0.003  -0.010  -0.004
  1.243   0.013  -0.006   0.006  -0.003   6.141  -0.009   0.004
  0.013   1.227   0.005  -0.001  -0.010  -0.009   6.150  -0.003
 -0.006   0.005   1.233   0.006  -0.004   0.004  -0.003   6.147
  0.006  -0.001   0.006   1.233   0.017  -0.003   0.002  -0.004
 -0.003  -0.010  -0.004   0.017   1.240   0.002   0.007   0.002
  0.000   0.004  -0.000   0.004   0.001   0.001   0.001  -0.001
  0.000   0.008  -0.001   0.007   0.001   0.001   0.002  -0.001
 -0.017  -0.008   0.002   0.000   0.004   0.010   0.005  -0.001
  0.000  -0.005  -0.008  -0.019   0.001   0.001   0.004   0.005
 -0.004   0.000   0.010  -0.007  -0.019   0.003   0.001  -0.006
 -0.018  -0.009   0.002  -0.000   0.004   0.009   0.005  -0.000
 -0.000  -0.006  -0.009  -0.020   0.001   0.001   0.005   0.005
 -0.005  -0.000   0.010  -0.007  -0.020   0.003   0.001  -0.005
 total augmentation occupancy for first ion, spin component:           1
  1.950  -0.001   0.005   0.003   0.003  -0.010   0.001  -0.004   0.004  -0.005  -0.003   0.003   0.085   0.001   0.001  -0.032
 -0.001   1.953   0.000   0.008   0.009   0.001  -0.018   0.004  -0.004  -0.007  -0.008  -0.011   0.008  -0.012   0.006  -0.011
  0.005   0.000   1.945   0.004  -0.001  -0.004   0.004  -0.009  -0.001  -0.002   0.001  -0.005  -0.018   0.039  -0.040   0.002
  0.003   0.008   0.004   1.953  -0.007   0.004  -0.004  -0.001  -0.016   0.007  -0.004   0.003  -0.000   0.055   0.031  -0.001
  0.003   0.009  -0.001  -0.007   1.950  -0.005  -0.007  -0.002   0.007  -0.016  -0.016   0.003  -0.011   0.020   0.050   0.003
 -0.010   0.001  -0.004   0.004  -0.005   0.009   0.000   0.000   0.003  -0.001   0.001  -0.000   0.023   0.008  -0.001  -0.001
  0.001  -0.018   0.004  -0.004  -0.007   0.000   0.006   0.001   0.000  -0.001   0.042  -0.003   0.002   0.003   0.005  -0.000
 -0.004   0.004  -0.009  -0.001  -0.002   0.000   0.001   0.007   0.002  -0.002   0.002   0.001   0.002   0.012  -0.010  -0.000
  0.004  -0.004  -0.001  -0.016   0.007   0.003   0.000   0.002   0.009   0.001   0.018  -0.003   0.008   0.023   0.006  -0.000
 -0.005  -0.007  -0.002   0.007  -0.016  -0.001  -0.001  -0.002   0.001   0.007   0.012  -0.003  -0.004  -0.000   0.016   0.000
 -0.003  -0.008   0.001  -0.004  -0.016   0.001   0.042   0.002   0.018   0.012   1.635  -0.096   0.024   0.094   0.240  -0.002
  0.003  -0.011  -0.005   0.003   0.003  -0.000  -0.003   0.001  -0.003  -0.003  -0.096   0.010  -0.001  -0.008  -0.026   0.000
  0.085   0.008  -0.018  -0.000  -0.011   0.023   0.002   0.002   0.008  -0.004   0.024  -0.001   0.085   0.038  -0.007  -0.006
  0.001  -0.012   0.039   0.055   0.020   0.008   0.003   0.012   0.023  -0.000   0.094  -0.008   0.038   0.108   0.002  -0.002
  0.001   0.006  -0.040   0.031   0.050  -0.001   0.005  -0.010   0.006   0.016   0.240  -0.026  -0.007   0.002   0.096  -0.000
 -0.032  -0.011   0.002  -0.001   0.003  -0.001  -0.000  -0.000  -0.000   0.000  -0.002   0.000  -0.006  -0.002  -0.000   0.001
 -0.001  -0.003  -0.016  -0.031  -0.000  -0.000  -0.000  -0.001  -0.001  -0.000  -0.011   0.001  -0.002  -0.007  -0.001   0.000
 -0.004  -0.000   0.017  -0.012  -0.028   0.000  -0.001   0.001  -0.001  -0.001  -0.030   0.003  -0.000  -0.002  -0.009   0.000
 total augmentation occupancy for first ion, spin component:           2
  0.000   0.000   0.000   0.000  -0.000   0.000  -0.000  -0.000   0.000  -0.000  -0.000   0.000  -0.000   0.000   0.000   0.000
  0.000   0.000  -0.000  -0.000   0.000  -0.000   0.000  -0.000  -0.000  -0.000  -0.000   0.000   0.000   0.000   0.000  -0.000
  0.000  -0.000   0.000   0.000  -0.000  -0.000   0.000   0.000  -0.000  -0.000  -0.000   0.000   0.000  -0.000  -0.000  -0.000
  0.000  -0.000   0.000  -0.000   0.000   0.000  -0.000   0.000  -0.000   0.000  -0.000   0.000   0.000  -0.000   0.000  -0.000
 -0.000   0.000  -0.000   0.000  -0.000  -0.000  -0.000  -0.000   0.000  -0.000  -0.000   0.000   0.000  -0.000   0.000  -0.000
  0.000  -0.000  -0.000   0.000  -0.000   0.000   0.000   0.000  -0.000   0.000   0.000  -0.000  -0.000   0.000  -0.000   0.000
 -0.000   0.000   0.000  -0.000  -0.000   0.000  -0.000   0.000  -0.000  -0.000   0.000  -0.000  -0.000  -0.000  -0.000   0.000
 -0.000  -0.000   0.000   0.000  -0.000   0.000   0.000   0.000  -0.000   0.000   0.000  -0.000  -0.000   0.000  -0.000   0.000
  0.000  -0.000  -0.000  -0.000   0.000  -0.000  -0.000  -0.000   0.000   0.000  -0.000   0.000   0.000  -0.000   0.000  -0.000
 -0.000  -0.000  -0.000   0.000  -0.000   0.000  -0.000   0.000   0.000   0.000   0.000  -0.000  -0.000  -0.000  -0.000   0.000
 -0.000  -0.000  -0.000  -0.000  -0.000   0.000   0.000   0.000  -0.000   0.000   0.000   0.000   0.000  -0.000  -0.000  -0.000
  0.000   0.000   0.000   0.000   0.000  -0.000  -0.000  -0.000   0.000  -0.000   0.000   0.000  -0.000   0.000   0.000   0.000
 -0.000   0.000   0.000   0.000   0.000  -0.000  -0.000  -0.000   0.000  -0.000   0.000  -0.000  -0.000   0.000   0.000   0.000
  0.000   0.000  -0.000  -0.000  -0.000   0.000  -0.000   0.000  -0.000  -0.000  -0.000   0.000   0.000  -0.000   0.000  -0.000
  0.000   0.000  -0.000   0.000   0.000  -0.000  -0.000  -0.000   0.000  -0.000  -0.000   0.000   0.000   0.000   0.000  -0.000
  0.000  -0.000  -0.000  -0.000  -0.000   0.000   0.000   0.000  -0.000   0.000  -0.000   0.000   0.000  -0.000  -0.000  -0.000
 -0.000  -0.000   0.000   0.000   0.000  -0.000   0.000  -0.000   0.000   0.000   0.000  -0.000  -0.000   0.000  -0.000   0.000
 -0.000  -0.000   0.000  -0.000  -0.000   0.000   0.000   0.000  -0.000   0.000   0.000  -0.000  -0.000  -0.000  -0.000   0.000


------------------------ aborting loop because EDIFF is reached ----------------------------------------


 


 total charge     
 
# of ion       s       p       d       tot
------------------------------------------
    1        0.467   0.152   9.276   9.895
    2        0.487   0.144   9.270   9.901
    3        0.434   0.239   9.226   9.899
    4        0.474   0.149   9.275   9.898
    5        0.431   0.217   9.257   9.905
    6        0.464   0.155   9.286   9.905
    7        0.455   0.184   9.261   9.900
    8        0.466   0.263   9.230   9.959
    9        0.422   0.222   9.245   9.888
   10        0.430   0.274   9.234   9.938
   11        0.475   0.179   9.258   9.912
   12        0.459   0.450   9.220  10.129
   13        0.462   0.224   9.241   9.927
   14        0.463   0.270   9.209   9.942
   15        0.480   0.142   9.275   9.897
   16        0.448   0.323   9.212   9.982
   17        0.454   0.240   9.239   9.933
   18        0.447   0.269   9.214   9.930
   19        0.445   0.300   9.211   9.956
   20        0.483   0.179   9.254   9.916
--------------------------------------------------
tot          9.144   4.576 184.894 198.614
 


 magnetization (x)
 
# of ion       s       p       d       tot
------------------------------------------
    1        0.000  -0.000   0.000   0.000
    2        0.000   0.000  -0.000   0.000
    3        0.000  -0.000  -0.000   0.000
    4        0.000  -0.000  -0.000  -0.000
    5        0.000  -0.000   0.000   0.000
    6        0.000  -0.000   0.000   0.000
    7       -0.000  -0.000   0.000  -0.000
    8        0.000   0.000   0.000   0.000
    9        0.000   0.000   0.000   0.000
   10        0.000   0.000   0.000   0.000
   11        0.000  -0.000   0.000   0.000
   12       -0.000  -0.000   0.000   0.000
   13       -0.000   0.000   0.000   0.000
   14       -0.000  -0.000   0.000  -0.000
   15        0.000  -0.000  -0.000  -0.000
   16        0.000   0.000   0.000   0.000
   17        0.000   0.000   0.000   0.000
   18       -0.000   0.000   0.000   0.000
   19       -0.000  -0.000   0.000   0.000
   20        0.000   0.000   0.000   0.000
--------------------------------------------------
tot          0.000  -0.000   0.000   0.000
 
    CHARGE:  cpu time    0.5640: real time    0.5661
    FORLOC:  cpu time    0.0360: real time    0.0353
    FORNL :  cpu time    2.8120: real time    2.8133
    STRESS:  cpu time    7.9040: real time    7.9058
    FORCOR:  cpu time    0.9080: real time    0.9073
    FORHAR:  cpu time    0.1400: real time    0.1403
    MIXING:  cpu time    0.0320: real time    0.0315
    OFIELD:  cpu time    0.0000: real time    0.0001

  FORCE on cell =-STRESS in cart. coord.  units (eV):
  Direction    XX          YY          ZZ          XY          YZ          ZX
  --------------------------------------------------------------------------------------
  Alpha Z    10.83449    10.83449    10.83449
  Ewald   25166.60679 17970.76421 15714.12214  3245.69628  2852.63990 -6530.13804
  Hartree 33138.59100 26461.25574 24465.78059  2952.09733  2529.15691 -6004.62327
  E(xc)   -1282.98745 -1283.77992 -1284.22254     0.43362     0.58720    -0.83493
  Local  -60242.29899-46371.78819-42125.38278 -6192.22286 -5376.52127 12533.72822
  n-local  -472.80869  -475.32401  -475.22094     0.65047     1.10099    -3.07206
  augment  1875.70318  1878.38390  1881.01462    -2.99473    -3.10164     2.16857
  Kinetic  1799.82987  1803.46180  1806.81163    -3.76271    -3.56178     2.77462
  Fock        0.00000     0.00000     0.00000     0.00000     0.00000     0.00000
  -------------------------------------------------------------------------------------
  Total      -6.52980    -6.19198    -6.26281    -0.10260     0.30029     0.00309
  in kB      -0.38748    -0.36743    -0.37163    -0.00609     0.01782     0.00018
  external pressure =       -0.38 kB  Pullay stress =        0.00 kB


 VOLUME and BASIS-vectors are now :
 -----------------------------------------------------------------------------
  energy-cutoff  :      295.45
  volume of cell :    27000.00
      direct lattice vectors                 reciprocal lattice vectors
    30.000000000  0.000000000  0.000000000     0.033333333  0.000000000  0.000000000
     0.000000000 30.000000000  0.000000000     0.000000000  0.033333333  0.000000000
     0.000000000  0.000000000 30.000000000     0.000000000  0.000000000  0.033333333

  length of vectors
    30.000000000 30.000000000 30.000000000     0.033333333  0.033333333  0.033333333


 FORCES acting on ions
    electron-ion (+dipol)            ewald-force                    non-local-force                 convergence-correction
 -----------------------------------------------------------------------------------------------
   0.157E+04 0.325E+03 0.272E+03   -.156E+04 -.324E+03 -.268E+03   -.862E+01 -.108E+01 -.352E+01   -.108E-01 -.703E-02 0.300E-01
   0.903E+03 0.109E+04 0.821E+03   -.898E+03 -.109E+04 -.816E+03   -.533E+01 -.646E+01 -.451E+01   0.877E-03 0.302E-01 -.547E-02
   0.554E+03 0.307E+03 0.139E+04   -.551E+03 -.306E+03 -.139E+04   -.342E+01 -.897E+00 -.109E+01   -.144E-01 0.217E-01 -.231E-02
   -.117E+04 -.906E+03 0.673E+03   0.117E+04 0.898E+03 -.671E+03   0.610E+01 0.723E+01 -.195E+01   0.255E-02 0.198E-02 -.170E-01
   0.702E+03 -.119E+04 0.111E+04   -.698E+03 0.119E+04 -.110E+04   -.339E+01 0.500E+01 -.728E+01   0.747E-02 0.108E-01 -.537E-02
   0.808E+03 -.945E+03 -.114E+04   -.804E+03 0.938E+03 0.113E+04   -.433E+01 0.729E+01 0.504E+01   -.104E-01 -.268E-01 -.159E-01
   -.100E+04 -.569E+03 -.135E+04   0.996E+03 0.567E+03 0.134E+04   0.431E+01 0.242E+01 0.680E+01   -.389E-02 0.485E-02 -.529E-02
   -.783E+03 0.115E+04 0.682E+03   0.783E+03 -.114E+04 -.679E+03   0.520E+00 -.236E+01 -.268E+01   -.220E-01 0.143E-01 -.568E-02
   -.809E+03 0.112E+04 -.104E+04   0.803E+03 -.111E+04 0.104E+04   0.565E+01 -.253E+01 0.555E+01   -.599E-02 0.409E-03 -.100E-01
   -.150E+04 0.604E+02 -.468E+03   0.150E+04 -.613E+02 0.467E+03   0.423E+01 0.907E+00 0.117E+01   -.510E-02 0.108E-01 -.790E-03
   0.121E+04 0.371E+03 -.109E+04   -.121E+04 -.366E+03 0.109E+04   -.376E+01 -.429E+01 0.562E+01   0.327E-01 -.428E-01 0.227E-01
   -.141E+03 -.104E+03 -.549E+02   0.141E+03 0.103E+03 0.550E+02   0.400E+00 0.546E+00 -.178E+00   -.818E-02 0.125E-01 0.121E-01
   -.630E+03 -.155E+04 0.100E+03   0.629E+03 0.154E+04 -.101E+03   0.737E+00 0.465E+01 0.107E+01   0.767E-02 0.556E-02 -.494E-04
   -.362E+02 0.187E+03 -.159E+04   0.367E+02 -.187E+03 0.159E+04   -.487E+00 -.254E+00 0.364E+01   0.333E-02 -.103E-01 -.201E-02
   -.129E+04 0.510E+03 0.834E+03   0.128E+04 -.504E+03 -.828E+03   0.583E+01 -.606E+01 -.578E+01   0.248E-02 -.948E-02 0.594E-02
   0.568E+03 0.107E+04 -.546E+03   -.566E+03 -.107E+04 0.546E+03   -.198E+01 -.138E+01 -.316E+00   -.350E-02 0.130E-01 0.146E-02
   0.201E+03 -.159E+04 -.547E+03   -.203E+03 0.158E+04 0.545E+03   0.200E+01 0.455E+01 0.206E+01   -.100E-01 -.266E-02 -.694E-03
   -.243E+03 -.327E+03 0.152E+04   0.241E+03 0.326E+03 -.152E+04   0.248E+01 0.992E+00 -.397E+01   -.306E-02 0.968E-03 0.104E-01
   0.124E+04 -.690E+03 0.233E+03   -.124E+04 0.690E+03 -.234E+03   -.251E+01 -.232E+00 0.700E+00   0.554E-02 -.248E-01 -.128E-01
   -.151E+03 0.167E+04 0.191E+03   0.151E+03 -.167E+04 -.190E+03   0.249E+00 -.748E+01 -.144E+01   -.114E-01 0.125E-01 -.104E-01
 -----------------------------------------------------------------------------------------------
   0.126E+01 -.578E+00 0.118E+01   0.102E-11 -.682E-12 0.625E-12   -.131E+01 0.567E+00 -.107E+01   -.462E-01 0.157E-01 -.112E-01
 
 
 POSITION                                       TOTAL-FORCE (eV/Angst)
 -----------------------------------------------------------------------------------
      5.79122      8.38995      9.44062         0.060468     -0.010199     -0.043067
      7.18084      6.88637      8.10075         0.041947     -0.007628      0.029421
      8.69293      8.68426      7.71117         0.008455     -0.070829      0.018781
     12.84372     11.25311      7.59004         0.002321     -0.033593     -0.017010
      8.73276     11.26602      8.09666         0.023202     -0.055075      0.016662
      7.22785     11.17563     12.10975        -0.030789      0.082591      0.043939
     11.01002     10.59380     11.37761        -0.039682     -0.040114      0.028013
     11.06562      7.85413      8.23849         0.002280     -0.020217      0.018536
     10.49215      7.83302     10.67512         0.034672      0.006180      0.010125
     12.20887      9.67015      9.41963        -0.004770      0.040455      0.021405
      6.40437      8.96250     11.72139        -0.017158      0.068168     -0.034698
      9.76732      9.73876      9.55154        -0.052985      0.015544     -0.067700
     10.98706     11.84212      9.06550         0.014786     -0.004388      0.000936
      8.87239      9.47622     11.84374         0.027841     -0.002035     -0.018686
     13.05745      8.89848      7.31046        -0.027360      0.017606     -0.025570
      8.04140      7.86770     10.17876         0.004279     -0.020267      0.005536
      8.99099     11.84170     10.55453        -0.003575      0.011803      0.001104
     10.76830     10.07160      7.24586        -0.003926     -0.029824      0.039338
      7.29584     10.24842      9.82300        -0.005398      0.019378     -0.044132
      9.41959      6.34710      8.96472        -0.034606      0.032445      0.017066
 -----------------------------------------------------------------------------------
    total drift:                               -0.093067      0.003854      0.092779


--------------------------------------------------------------------------------------------------------



  FREE ENERGIE OF THE ION-ELECTRON SYSTEM (eV)
  ---------------------------------------------------
  free  energy   TOTEN  =       -53.89959879 eV

  energy  without entropy=      -53.89959879  energy(sigma->0) =      -53.89959879
 
 d Force = 0.6862086E-02[ 0.549E-02, 0.823E-02]  d Energy = 0.6942781E-02-0.807E-04
 d Force = 0.1969968E+02[ 0.201E+02, 0.193E+02]  d Ewald  = 0.1969990E+02-0.219E-03


--------------------------------------------------------------------------------------------------------


    POTLOK:  cpu time    0.9600: real time    0.9581


--------------------------------------------------------------------------------------------------------


 Conjugate gradient step on ions:
 trial-energy change:   -0.006943  1 .order   -0.006862   -0.008231   -0.005493
  (g-gl).g = 0.553E-02      g.g   = 0.499E-02  gl.gl    = 0.551E-02
 g(Force)  = 0.499E-02   g(Stress)= 0.000E+00 ortho     = 0.924E-04
 gamma     =   1.00317
 trial     =   1.62028
 opt step  =   3.90056  (harmonic =   4.87139) maximal distance =0.04818500
 next E    =   -53.903689   (d E  =  -0.01103)


--------------------------------------------------------------------------------------------------------


  
 reached required accuracy - stopping structural energy minimisation
     LOOP+:  cpu time  129.5440: real time  129.5788
    4ORBIT:  cpu time    0.0000: real time    0.0000
 


 total charge     
 
# of ion       s       p       d       tot
------------------------------------------
    1        0.467   0.152   9.276   9.895
    2        0.487   0.144   9.270   9.901
    3        0.434   0.239   9.226   9.899
    4        0.474   0.149   9.275   9.898
    5        0.431   0.217   9.257   9.905
    6        0.464   0.155   9.286   9.905
    7        0.455   0.184   9.261   9.900
    8        0.466   0.263   9.230   9.959
    9        0.422   0.222   9.245   9.888
   10        0.430   0.274   9.234   9.938
   11        0.475   0.179   9.258   9.912
   12        0.459   0.450   9.220  10.129
   13        0.462   0.224   9.241   9.927
   14        0.463   0.270   9.209   9.942
   15        0.480   0.142   9.275   9.897
   16        0.448   0.323   9.212   9.982
   17        0.454   0.240   9.239   9.933
   18        0.447   0.269   9.214   9.930
   19        0.445   0.300   9.211   9.956
   20        0.483   0.179   9.254   9.916
--------------------------------------------------
tot          9.144   4.576 184.894 198.614
 


 magnetization (x)
 
# of ion       s       p       d       tot
------------------------------------------
    1        0.000  -0.000   0.000   0.000
    2        0.000   0.000  -0.000   0.000
    3        0.000  -0.000  -0.000   0.000
    4        0.000  -0.000  -0.000  -0.000
    5        0.000  -0.000   0.000   0.000
    6        0.000  -0.000   0.000   0.000
    7       -0.000  -0.000   0.000  -0.000
    8        0.000   0.000   0.000   0.000
    9        0.000   0.000   0.000   0.000
   10        0.000   0.000   0.000   0.000
   11        0.000  -0.000   0.000   0.000
   12       -0.000  -0.000   0.000   0.000
   13       -0.000   0.000   0.000   0.000
   14       -0.000  -0.000   0.000  -0.000
   15        0.000  -0.000  -0.000  -0.000
   16        0.000   0.000   0.000   0.000
   17        0.000   0.000   0.000   0.000
   18       -0.000   0.000   0.000   0.000
   19       -0.000  -0.000   0.000   0.000
   20        0.000   0.000   0.000   0.000
--------------------------------------------------
tot          0.000  -0.000   0.000   0.000
 

 total amount of memory used by VASP MPI-rank0   114894. kBytes
=======================================================================

   base      :      30000. kBytes
   nonl-proj :       6562. kBytes
   fftplans  :      16829. kBytes
   grid      :      42892. kBytes
   one-center:         31. kBytes
   wavefun   :      18580. kBytes
 
  
  
 General timing and accounting informations for this job:
 ========================================================
  
                  Total CPU time used (sec):     4320.244
                            User time (sec):     4297.176
                          System time (sec):       23.068
                         Elapsed time (sec):     4324.049
  
                   Maximum memory used (kb):       44328.
                   Average memory used (kb):           0.
  
                          Minor page faults:        20661
                          Major page faults:           28
                 Voluntary context switches:         1702
