 vasp.5.4.4.18Apr17-6-g9f103f2a35 (build Jan 23 2020 13:04:52) gamma-only       
  
 executed on           IFC91_ompi date 2021.01.01  10:30:17
 running on   44 total cores
 distrk:  each k-point on   44 cores,    1 groups
 distr:  one band on NCORES_PER_BAND=  11 cores,    4 groups


--------------------------------------------------------------------------------------------------------


 INCAR:
 POTCAR:    PAW_PBE Cu 22Jun2005                  
 POTCAR:    PAW_PBE Cu 22Jun2005                  
   VRHFIN =Cu: d10 p1                                                           
   LEXCH  = PE                                                                  
   EATOM  =  1390.9808 eV,  102.2342 Ry                                         
                                                                                
   TITEL  = PAW_PBE Cu 22Jun2005                                                
   LULTRA =        F    use ultrasoft PP ?                                      
   IUNSCR =        1    unscreen: 0-lin 1-nonlin 2-no                           
   RPACOR =    2.000    partial core radius                                     
   POMASS =   63.546; ZVAL   =   11.000    mass and valenz                      
   RCORE  =    2.300    outmost cutoff radius                                   
   RWIGS  =    2.200; RWIGS  =    1.164    wigner-seitz radius (au A)           
   ENMAX  =  295.446; ENMIN  =  221.585 eV                                      
   ICORE  =        3    local potential                                         
   LCOR   =        T    correct aug charges                                     
   LPAW   =        T    paw PP                                                  
   EAUG   =  586.980                                                            
   DEXC   =    0.000                                                            
   RMAX   =    2.344    core radius for proj-oper                               
   RAUG   =    1.300    factor for augmentation sphere                          
   RDEP   =    2.302    radius for radial grids                                 
   RDEPT  =    1.771    core radius for aug-charge                              
                                                                                
   Atomic configuration                                                         
    9 entries                                                                   
     n  l   j            E        occ.                                          
     1  0  0.50     -8850.2468   2.0000                                         
     2  0  0.50     -1062.3498   2.0000                                         
     2  1  1.50      -916.8226   6.0000                                         
     3  0  0.50      -114.6929   2.0000                                         
     3  1  1.50       -72.1325   6.0000                                         
     3  2  2.50        -5.0394  10.0000                                         
     4  0  0.50        -4.6097   1.0000                                         
     4  1  0.50        -4.0817   0.0000                                         
     4  3  2.50        -1.3606   0.0000                                         
   Description                                                                  
     l       E           TYP  RCUT    TYP  RCUT                                 
     2     -5.0393973     23  2.200                                             
     2     10.8846608     23  2.200                                             
     0     -4.6097109     23  2.200                                             
     0      8.2520465     23  2.200                                             
     1     -2.7211652     23  2.200                                             
     1     21.7055443     23  2.200                                             
     3      2.7211652     23  2.300                                             
  local pseudopotential read in
  partial core-charges read in
  partial kinetic energy density read in
  atomic valenz-charges read in
  non local Contribution for L=           2  read in
    real space projection operators read in
  non local Contribution for L=           2  read in
    real space projection operators read in
  non local Contribution for L=           0  read in
    real space projection operators read in
  non local Contribution for L=           0  read in
    real space projection operators read in
  non local Contribution for L=           1  read in
    real space projection operators read in
  non local Contribution for L=           1  read in
    real space projection operators read in
    PAW grid and wavefunctions read in
 
   number of l-projection  operators is LMAX  =           6
   number of lm-projection operators is LMMAX =          18
 

 ----------------------------------------------------------------------------- 
|                                                                             |
|  ADVICE TO THIS USER RUNNING 'VASP/VAMP'   (HEAR YOUR MASTER'S VOICE ...):  |
|                                                                             |
|      You have a (more or less) 'large supercell' and for larger cells       |
|      it might be more efficient to use real space projection opertators     |
|      So try LREAL= Auto  in the INCAR   file.                               |
|      Mind:          For very  accurate calculation you might also keep the  |
|      reciprocal projection scheme          (i.e. LREAL=.FALSE.)             |
|                                                                             |
 ----------------------------------------------------------------------------- 

  PAW_PBE Cu 22Jun2005                  :
 energy of atom  1       EATOM=-1390.9808
 kinetic energy error for atom=    0.0452 (will be added to EATOM!!)
 
 
 POSCAR: Unknown Structure <s> Cu </s>           
  positions in direct lattice
  No initial velocities read in
 exchange correlation table for  LEXCH =        8
   RHO(1)=    0.500       N(1)  =     2000
   RHO(2)=  100.500       N(2)  =     4000
 


--------------------------------------------------------------------------------------------------------


 ion  position               nearest neighbor table
   1  0.222  0.269  0.262-   2 2.35   3 2.37   6 2.49   5 2.52   4 2.58
   2  0.186  0.303  0.323-   6 2.34   5 2.34   1 2.35   7 2.35
   3  0.290  0.302  0.238-   9 2.34   1 2.37   4 2.44   5 2.51  17 2.56  13 2.57  15 2.58
   4  0.298  0.233  0.282-   8 2.35   6 2.41   3 2.44  17 2.47  10 2.56   1 2.58  13 2.70
   5  0.241  0.347  0.288-   2 2.34   9 2.41  11 2.42  12 2.49   3 2.51   1 2.52   7 2.53   6 2.62

   6  0.258  0.276  0.337-   2 2.34  19 2.41   4 2.41  17 2.41   1 2.49   7 2.49  10 2.61   5 2.62

   7  0.229  0.346  0.372-   2 2.35  12 2.38   6 2.49   5 2.53  19 2.60
   8  0.371  0.209  0.294-   4 2.35  16 2.36  13 2.39  10 2.45
   9  0.271  0.375  0.219-  11 2.31   3 2.34   5 2.41  15 2.46
  10  0.332  0.236  0.360-  17 2.43   8 2.45  14 2.45  19 2.55   4 2.56  16 2.58   6 2.61
  11  0.276  0.419  0.282-   9 2.31  12 2.34   5 2.42  15 2.46
  12  0.297  0.375  0.343-  11 2.34   7 2.38  19 2.44   5 2.49  17 2.57  20 2.57  15 2.59
  13  0.371  0.274  0.249-   8 2.39  18 2.42  17 2.43   3 2.57  16 2.64   4 2.70
  14  0.380  0.287  0.403-  19 2.35  16 2.36  20 2.39  10 2.45
  15  0.338  0.368  0.267-  18 2.34  17 2.42  11 2.46   9 2.46   3 2.58  12 2.59
  16  0.404  0.271  0.330-  14 2.36   8 2.36  17 2.43  18 2.45  10 2.58  20 2.64  13 2.64
  17  0.331  0.302  0.313-   6 2.41  15 2.42  20 2.43  13 2.43  10 2.43  16 2.43   4 2.47  19 2.47
                             3 2.56  12 2.57  18 2.70
  18  0.408  0.337  0.283-  15 2.34  13 2.42  20 2.42  16 2.45  17 2.70
  19  0.306  0.311  0.392-  14 2.35   6 2.41  12 2.44  17 2.47  10 2.55   7 2.60  20 2.70
  20  0.378  0.351  0.357-  14 2.39  18 2.42  17 2.43  12 2.57  16 2.64  19 2.70
 

IMPORTANT INFORMATION: All symmetrisations will be switched off!
NOSYMM: (Re-)initialisation of all symmetry stuff for point group C_1.

 
 
 KPOINTS: Gamma-point only                        
  k-points in reciprocal lattice
Space group operators:
 irot       det(A)        alpha          n_x          n_y          n_z        tau_x        tau_y        tau_z
    1     1.000000     0.000000     1.000000     0.000000     0.000000     0.000000     0.000000     0.000000


--------------------------------------------------------------------------------------------------------




 Dimension of arrays:
   k-points           NKPTS =      1   k-points in BZ     NKDIM =      1   number of bands    NBANDS=    164
   number of dos      NEDOS =    301   number of ions     NIONS =     20
   non local maximal  LDIM  =      6   non local SUM 2l+1 LMDIM =     18
   total plane-waves  NPLWV = ******
   max r-space proj   IRMAX =      1   max aug-charges    IRDMAX=   2345
   dimension x,y,z NGX =   126 NGY =  126 NGZ =  126
   dimension x,y,z NGXF=   252 NGYF=  252 NGZF=  252
   support grid    NGXF=   252 NGYF=  252 NGZF=  252
   ions per type =              20
   NGX,Y,Z   is equivalent  to a cutoff of   6.98,  6.98,  6.98 a.u.
   NGXF,Y,Z  is equivalent  to a cutoff of  13.96, 13.96, 13.96 a.u.

 SYSTEM =  unknown system                          
 POSCAR =  Unknown Structure <s> Cu </s>           

 Startparameter for this run:
   NWRITE =      2    write-flag & timer
   PREC   = normal    normal or accurate (medium, high low for compatibility)
   ISTART =      0    job   : 0-new  1-cont  2-samecut
   ICHARG =      2    charge: 1-file 2-atom 10-const
   ISPIN  =      2    spin polarized calculation?
   LNONCOLLINEAR =      F non collinear calculations
   LSORBIT =      F    spin-orbit coupling
   INIWAV =      1    electr: 0-lowe 1-rand  2-diag
   LASPH  =      F    aspherical Exc in radial PAW
   METAGGA=      F    non-selfconsistent MetaGGA calc.

 Electronic Relaxation 1
   ENCUT  =  295.4 eV  21.71 Ry    4.66 a.u.  42.05 42.05 42.05*2*pi/ulx,y,z
   ENINI  =  295.4     initial cutoff
   ENAUG  =  587.0 eV  augmentation charge cutoff
   NELM   =     60;   NELMIN=  2; NELMDL= -5     # of ELM steps 
   EDIFF  = 0.1E-04   stopping-criterion for ELM
   LREAL  =      F    real-space projection
   NLSPLINE    = F    spline interpolate recip. space projectors
   LCOMPAT=      F    compatible to vasp.4.4
   GGA_COMPAT  = T    GGA compatible to vasp.4.4-vasp.4.6
   LMAXPAW     = -100 max onsite density
   LMAXMIX     =    2 max onsite mixed and CHGCAR
   VOSKOWN=      0    Vosko Wilk Nusair interpolation
   ROPT   =    0.00000
 Ionic relaxation
   EDIFFG = -.1E+00   stopping-criterion for IOM
   NSW    =    101    number of steps for IOM
   NBLOCK =      1;   KBLOCK =    101    inner block; outer block 
   IBRION =      2    ionic relax: 0-MD 1-quasi-New 2-CG
   NFREE  =      1    steps in history (QN), initial steepest desc. (CG)
   ISIF   =      2    stress and relaxation
   IWAVPR =     11    prediction:  0-non 1-charg 2-wave 3-comb
   ISYM   =      0    0-nonsym 1-usesym 2-fastsym
   LCORR  =      T    Harris-Foulkes like correction to forces

   POTIM  = 0.5000    time-step for ionic-motion
   TEIN   =    0.0    initial temperature
   TEBEG  =    0.0;   TEEND  =   0.0 temperature during run
   SMASS  =  -3.00    Nose mass-parameter (am)
   estimated Nose-frequenzy (Omega)   =  0.10E-29 period in steps =****** mass=  -0.206E-25a.u.
   SCALEE = 1.0000    scale energy and forces
   NPACO  =    256;   APACO  = 16.0  distance and # of slots for P.C.
   PSTRESS=    0.0 pullay stress

  Mass of Ions in am
   POMASS =  63.55
  Ionic Valenz
   ZVAL   =  11.00
  Atomic Wigner-Seitz radii
   RWIGS  =  -1.00
  virtual crystal weights 
   VCA    =   1.00
   NELECT =     220.0000    total number of electrons
   NUPDOWN=      -1.0000    fix difference up-down

 DOS related values:
   EMIN   =  10.00;   EMAX   =-10.00  energy-range for DOS
   EFERMI =   0.00
   ISMEAR =     0;   SIGMA  =   0.00  broadening in eV -4-tet -1-fermi 0-gaus

 Electronic relaxation 2 (details)
   IALGO  =     38    algorithm
   LDIAG  =      T    sub-space diagonalisation (order eigenvalues)
   LSUBROT=      F    optimize rotation matrix (better conditioning)
   TURBO    =      0    0=normal 1=particle mesh
   IRESTART =      0    0=no restart 2=restart with 2 vectors
   NREBOOT  =      0    no. of reboots
   NMIN     =      0    reboot dimension
   EREF     =   0.00    reference energy to select bands
   IMIX   =      4    mixing-type and parameters
     AMIX     =   0.40;   BMIX     =  1.00
     AMIX_MAG =   1.60;   BMIX_MAG =  1.00
     AMIN     =   0.10
     WC   =   100.;   INIMIX=   1;  MIXPRE=   1;  MAXMIX= -45

 Intra band minimization:
   WEIMIN = 0.0010     energy-eigenvalue tresh-hold
   EBREAK =  0.15E-07  absolut break condition
   DEPER  =   0.30     relativ break condition  

   TIME   =   0.40     timestep for ELM

  volume/ion in A,a.u.               =    1350.00      9110.25
  Fermi-wavevector in a.u.,A,eV,Ry     =   0.329428  0.622530  1.476547  0.108523
  Thomas-Fermi vector in A             =   1.223868
 
 Write flags
   LWAVE        =      F    write WAVECAR
   LDOWNSAMPLE  =      F    k-point downsampling of WAVECAR
   LCHARG       =      F    write CHGCAR
   LVTOT        =      F    write LOCPOT, total local potential
   LVHAR        =      F    write LOCPOT, Hartree potential only
   LELF         =      F    write electronic localiz. function (ELF)
   LORBIT       =     11    0 simple, 1 ext, 2 COOP (PROOUT), +10 PAW based schemes


 Dipole corrections
   LMONO  =      F    monopole corrections only (constant potential shift)
   LDIPOL =      F    correct potential (dipole corrections)
   IDIPOL =      0    1-x, 2-y, 3-z, 4-all directions 
   EPSILON=  1.0000000 bulk dielectric constant

 Exchange correlation treatment:
   GGA     =    PE    GGA type
   LEXCH   =     8    internal setting for exchange type
   VOSKOWN=      0    Vosko Wilk Nusair interpolation
   LHFCALC =     F    Hartree Fock is set to
   LHFONE  =     F    Hartree Fock one center treatment
   AEXX    =    0.0000 exact exchange contribution

 Linear response parameters
   LEPSILON=     F    determine dielectric tensor
   LRPA    =     F    only Hartree local field effects (RPA)
   LNABLA  =     F    use nabla operator in PAW spheres
   LVEL    =     F    velocity operator in full k-point grid
   LINTERFAST=   F  fast interpolation
   KINTER  =     0    interpolate to denser k-point grid
   CSHIFT  =0.1000    complex shift for real part using Kramers Kronig
   OMEGAMAX=  -1.0    maximum frequency
   DEG_THRESHOLD= 0.2000000E-02 threshold for treating states as degnerate
   RTIME   =   -0.100 relaxation time in fs
  (WPLASMAI=    0.000 imaginary part of plasma frequency in eV, 0.658/RTIME)
   DFIELD  = 0.0000000 0.0000000 0.0000000 field for delta impulse in time
 
 Orbital magnetization related:
   ORBITALMAG=     F  switch on orbital magnetization
   LCHIMAG   =     F  perturbation theory with respect to B field
   DQ        =  0.001000  dq finite difference perturbation B field
   LLRAUG    =     F  two centre corrections for induced B field



--------------------------------------------------------------------------------------------------------


 conjugate gradient relaxation of ions
 charge density and potential will be updated during run
 spin polarized calculation
 Variant of blocked Davidson
 Davidson routine will perform the subspace rotation
 perform sub-space diagonalisation
    after iterative eigenvector-optimisation
 modified Broyden-mixing scheme, WC =      100.0
 initial mixing is a Kerker type mixing with AMIX =  0.4000 and BMIX =      1.0000
 Hartree-type preconditioning will be used
 using additional bands           54
 reciprocal scheme for non local part
 use partial core corrections
 calculate Harris-corrections to forces 
   (improved forces if not selfconsistent)
 use gradient corrections 
 use of overlap-Matrix (Vanderbilt PP)
 Gauss-broadening in eV      SIGMA  =   0.00


--------------------------------------------------------------------------------------------------------


  energy-cutoff  :      295.45
  volume of cell :    27000.00
      direct lattice vectors                 reciprocal lattice vectors
    30.000000000  0.000000000  0.000000000     0.033333333  0.000000000  0.000000000
     0.000000000 30.000000000  0.000000000     0.000000000  0.033333333  0.000000000
     0.000000000  0.000000000 30.000000000     0.000000000  0.000000000  0.033333333

  length of vectors
    30.000000000 30.000000000 30.000000000     0.033333333  0.033333333  0.033333333


 
 k-points in units of 2pi/SCALE and weight: Gamma-point only                        
   0.00000000  0.00000000  0.00000000       1.000
 
 k-points in reciprocal lattice and weights: Gamma-point only                        
   0.00000000  0.00000000  0.00000000       1.000
 
 position of ions in fractional coordinates (direct lattice) 
   0.22240789  0.26896764  0.26231153
   0.18616625  0.30266827  0.32284508
   0.29025584  0.30172610  0.23828220
   0.29801796  0.23330299  0.28187055
   0.24072908  0.34680116  0.28843991
   0.25828522  0.27629951  0.33683527
   0.22934323  0.34590654  0.37190745
   0.37146905  0.20919331  0.29434618
   0.27113424  0.37478687  0.21942687
   0.33176222  0.23588043  0.36038048
   0.27568189  0.41918565  0.28233092
   0.29710197  0.37490199  0.34270183
   0.37090844  0.27419710  0.24850962
   0.37967703  0.28653666  0.40320159
   0.33758722  0.36775545  0.26689338
   0.40397790  0.27108310  0.33015204
   0.33082512  0.30196005  0.31332775
   0.40755492  0.33745681  0.28255929
   0.30595317  0.31051261  0.39151018
   0.37836978  0.35106278  0.35655445
 
 position of ions in cartesian coordinates  (Angst):
   6.67223673  8.06902910  7.86934585
   5.58498752  9.08004800  9.68535249
   8.70767518  9.05178298  7.14846613
   8.94053880  6.99908979  8.45611654
   7.22187252 10.40403485  8.65319721
   7.74855662  8.28898527 10.10505813
   6.88029688 10.37719618 11.15722348
  11.14407151  6.27579919  8.83038552
   8.13402724 11.24360616  6.58280617
   9.95286654  7.07641298 10.81141431
   8.27045662 12.57556946  8.46992750
   8.91305901 11.24705969 10.28105505
  11.12725324  8.22591309  7.45528869
  11.39031095  8.59609977 12.09604781
  10.12761667 11.03266345  8.00680143
  12.11933701  8.13249306  9.90456110
   9.92475352  9.05880155  9.39983259
  12.22664759 10.12370428  8.47677884
   9.17859495  9.31537844 11.74530544
  11.35109348 10.53188344 10.69663361
 


--------------------------------------------------------------------------------------------------------


 use parallel FFT for orbitals z direction half grid
 k-point  1 :   0.0000 0.0000 0.0000  plane waves:  155509

 maximum and minimum number of plane-waves per node :     14150    14126

 maximum number of plane-waves:    155509
 maximum index in each direction: 
   IXMAX=   42   IYMAX=   42   IZMAX=   42
   IXMIN=  -42   IYMIN=  -42   IZMIN=    0


 parallel 3D FFT for wavefunctions:
    minimum data exchange during FFTs selected (reduces bandwidth)
 parallel 3D FFT for charge:
    minimum data exchange during FFTs selected (reduces bandwidth)


 total amount of memory used by VASP MPI-rank0   114894. kBytes
=======================================================================

   base      :      30000. kBytes
   nonl-proj :       6562. kBytes
   fftplans  :      16829. kBytes
   grid      :      42892. kBytes
   one-center:         31. kBytes
   wavefun   :      18580. kBytes
 
     INWAV:  cpu time    0.0000: real time    0.0003
 Broyden mixing: mesh for mixing (old mesh)
   NGX = 85   NGY = 85   NGZ = 85
  (NGX  =252   NGY  =252   NGZ  =252)
  gives a total of 614125 points

 initial charge density was supplied:
 charge density of overlapping atoms calculated
 number of electron     220.0000000 magnetization      60.0000000
 keeping initial charge density in first step


--------------------------------------------------------------------------------------------------------


 Maximum index for augmentation-charges          169 (set IRDMAX)


--------------------------------------------------------------------------------------------------------


 First call to EWALD:  gamma=   0.059
 Maximum number of real-space cells 3x 3x 3
 Maximum number of reciprocal cells 3x 3x 3

    FEWALD:  cpu time    0.0040: real time    0.0013


--------------------------------------- Iteration      1(   1)  ---------------------------------------


    POTLOK:  cpu time    0.9680: real time    0.9774
    SETDIJ:  cpu time    0.0120: real time    0.0144
     EDDAV:  cpu time   10.0120: real time   10.0152
       DOS:  cpu time    0.0000: real time    0.0004
    --------------------------------------------
      LOOP:  cpu time   10.9920: real time   11.0075

 eigenvalue-minimisations  :   688
 total energy-change (2. order) : 0.1439302E+04  (-0.3086080E+04)
 number of electron     220.0000000 magnetization      60.0000000
 augmentation part      220.0000000 magnetization      60.0000000

 Free energy of the ion-electron system (eV)
  ---------------------------------------------------
  alpha Z        PSCENC =        10.83448944
  Ewald energy   TEWEN  =     60208.18942089
  -Hartree energ DENC   =    -85488.09030210
  -exchange      EXHF   =         0.00000000
  -V(xc)+E(xc)   XCENC  =       920.58658808
  PAW double counting   =     24544.34359605   -26657.91753714
  entropy T*S    EENTRO =         0.00000000
  eigenvalues    EBANDS =        82.64442690
  atomic energy  EATOM  =     27818.71169316
  Solvation  Ediel_sol  =         0.00000000
  ---------------------------------------------------
  free energy    TOTEN  =      1439.30237528 eV

  energy without entropy =     1439.30237528  energy(sigma->0) =     1439.30237528


--------------------------------------------------------------------------------------------------------




--------------------------------------- Iteration      1(   2)  ---------------------------------------


     EDDAV:  cpu time   12.6160: real time   12.6237
       DOS:  cpu time    0.0000: real time    0.0005
    --------------------------------------------
      LOOP:  cpu time   12.6160: real time   12.6242

 eigenvalue-minimisations  :   928
 total energy-change (2. order) :-0.1043769E+04  (-0.8855347E+03)
 number of electron     220.0000000 magnetization      60.0000000
 augmentation part      220.0000000 magnetization      60.0000000

 Free energy of the ion-electron system (eV)
  ---------------------------------------------------
  alpha Z        PSCENC =        10.83448944
  Ewald energy   TEWEN  =     60208.18942089
  -Hartree energ DENC   =    -85488.09030210
  -exchange      EXHF   =         0.00000000
  -V(xc)+E(xc)   XCENC  =       920.58658808
  PAW double counting   =     24544.34359605   -26657.91753714
  entropy T*S    EENTRO =         0.00000000
  eigenvalues    EBANDS =      -961.12439980
  atomic energy  EATOM  =     27818.71169316
  Solvation  Ediel_sol  =         0.00000000
  ---------------------------------------------------
  free energy    TOTEN  =       395.53354859 eV

  energy without entropy =      395.53354859  energy(sigma->0) =      395.53354859


--------------------------------------------------------------------------------------------------------




--------------------------------------- Iteration      1(   3)  ---------------------------------------


     EDDAV:  cpu time   11.4760: real time   11.4984
       DOS:  cpu time    0.0000: real time    0.0004
    --------------------------------------------
      LOOP:  cpu time   11.4760: real time   11.4988

 eigenvalue-minimisations  :   824
 total energy-change (2. order) :-0.3799747E+03  (-0.3576849E+03)
 number of electron     220.0000000 magnetization      60.0000000
 augmentation part      220.0000000 magnetization      60.0000000

 Free energy of the ion-electron system (eV)
  ---------------------------------------------------
  alpha Z        PSCENC =        10.83448944
  Ewald energy   TEWEN  =     60208.18942089
  -Hartree energ DENC   =    -85488.09030210
  -exchange      EXHF   =         0.00000000
  -V(xc)+E(xc)   XCENC  =       920.58658808
  PAW double counting   =     24544.34359605   -26657.91753714
  entropy T*S    EENTRO =         0.00000000
  eigenvalues    EBANDS =     -1341.09909423
  atomic energy  EATOM  =     27818.71169316
  Solvation  Ediel_sol  =         0.00000000
  ---------------------------------------------------
  free energy    TOTEN  =        15.55885416 eV

  energy without entropy =       15.55885416  energy(sigma->0) =       15.55885416


--------------------------------------------------------------------------------------------------------




--------------------------------------- Iteration      1(   4)  ---------------------------------------


     EDDAV:  cpu time   12.1040: real time   12.1014
       DOS:  cpu time    0.0000: real time    0.0004
    --------------------------------------------
      LOOP:  cpu time   12.1040: real time   12.1018

 eigenvalue-minimisations  :   880
 total energy-change (2. order) :-0.4865494E+02  (-0.4357390E+02)
 number of electron     220.0000000 magnetization      60.0000000
 augmentation part      220.0000000 magnetization      60.0000000

 Free energy of the ion-electron system (eV)
  ---------------------------------------------------
  alpha Z        PSCENC =        10.83448944
  Ewald energy   TEWEN  =     60208.18942089
  -Hartree energ DENC   =    -85488.09030210
  -exchange      EXHF   =         0.00000000
  -V(xc)+E(xc)   XCENC  =       920.58658808
  PAW double counting   =     24544.34359605   -26657.91753714
  entropy T*S    EENTRO =        -0.00000000
  eigenvalues    EBANDS =     -1389.75403767
  atomic energy  EATOM  =     27818.71169316
  Solvation  Ediel_sol  =         0.00000000
  ---------------------------------------------------
  free energy    TOTEN  =       -33.09608928 eV

  energy without entropy =      -33.09608928  energy(sigma->0) =      -33.09608928


--------------------------------------------------------------------------------------------------------




--------------------------------------- Iteration      1(   5)  ---------------------------------------


     EDDAV:  cpu time   11.9080: real time   11.9079
       DOS:  cpu time    0.0000: real time    0.0005
    CHARGE:  cpu time    0.5680: real time    0.5683
    MIXING:  cpu time    0.0200: real time    0.0206
    --------------------------------------------
      LOOP:  cpu time   12.4960: real time   12.4974

 eigenvalue-minimisations  :   864
 total energy-change (2. order) :-0.2516967E+01  (-0.2213412E+01)
 number of electron     219.9999918 magnetization      56.7727385
 augmentation part      130.5051624 magnetization      54.2424549

 Broyden mixing:
  rms(total) = 0.79680E+01    rms(broyden)= 0.79669E+01
  rms(prec ) = 0.80120E+01
  weight for this iteration     100.00

 Free energy of the ion-electron system (eV)
  ---------------------------------------------------
  alpha Z        PSCENC =        10.83448944
  Ewald energy   TEWEN  =     60208.18942089
  -Hartree energ DENC   =    -85488.09030210
  -exchange      EXHF   =         0.00000000
  -V(xc)+E(xc)   XCENC  =       920.58658808
  PAW double counting   =     24544.34359605   -26657.91753714
  entropy T*S    EENTRO =         0.00000000
  eigenvalues    EBANDS =     -1392.27100501
  atomic energy  EATOM  =     27818.71169316
  Solvation  Ediel_sol  =         0.00000000
  ---------------------------------------------------
  free energy    TOTEN  =       -35.61305662 eV

  energy without entropy =      -35.61305662  energy(sigma->0) =      -35.61305662


--------------------------------------------------------------------------------------------------------




--------------------------------------- Iteration      1(   6)  ---------------------------------------


    POTLOK:  cpu time    0.9480: real time    0.9593
    SETDIJ:  cpu time    0.0160: real time    0.0145
     EDDAV:  cpu time   10.3080: real time   10.3101
       DOS:  cpu time    0.0000: real time    0.0006
    CHARGE:  cpu time    0.5640: real time    0.5634
    MIXING:  cpu time    0.0240: real time    0.0220
    --------------------------------------------
      LOOP:  cpu time   11.8600: real time   11.8699

 eigenvalue-minimisations  :   712
 total energy-change (2. order) : 0.1504838E+03  (-0.8800484E+02)
 number of electron     219.9999919 magnetization      54.3629165
 augmentation part      151.5093215 magnetization      36.7927764

 Broyden mixing:
  rms(total) = 0.36590E+01    rms(broyden)= 0.36572E+01
  rms(prec ) = 0.37412E+01
  weight for this iteration     100.00

 eigenvalues of (default mixing * dielectric matrix)
  average eigenvalue GAMMA=   0.9361
  0.9361

 Free energy of the ion-electron system (eV)
  ---------------------------------------------------
  alpha Z        PSCENC =        10.83448944
  Ewald energy   TEWEN  =     60208.18942089
  -Hartree energ DENC   =    -84941.83023552
  -exchange      EXHF   =         0.00000000
  -V(xc)+E(xc)   XCENC  =      1005.79253152
  PAW double counting   =     24652.78404707   -26668.32228716
  entropy T*S    EENTRO =         0.00000000
  eigenvalues    EBANDS =     -1971.28890370
  atomic energy  EATOM  =     27818.71169316
  Solvation  Ediel_sol  =         0.00000000
  ---------------------------------------------------
  free energy    TOTEN  =       114.87075570 eV

  energy without entropy =      114.87075570  energy(sigma->0) =      114.87075570


--------------------------------------------------------------------------------------------------------




--------------------------------------- Iteration      1(   7)  ---------------------------------------


    POTLOK:  cpu time    0.9440: real time    0.9546
    SETDIJ:  cpu time    0.0160: real time    0.0148
     EDDAV:  cpu time   11.1600: real time   11.1585
       DOS:  cpu time    0.0000: real time    0.0006
    CHARGE:  cpu time    0.5640: real time    0.5633
    MIXING:  cpu time    0.0200: real time    0.0229
    --------------------------------------------
      LOOP:  cpu time   12.7040: real time   12.7147

 eigenvalue-minimisations  :   788
 total energy-change (2. order) :-0.1107608E+02  (-0.3544874E+02)
 number of electron     219.9999897 magnetization      51.3796819
 augmentation part      141.6493227 magnetization      32.9559096

 Broyden mixing:
  rms(total) = 0.18179E+01    rms(broyden)= 0.18168E+01
  rms(prec ) = 0.18338E+01
  weight for this iteration     100.00

 eigenvalues of (default mixing * dielectric matrix)
  average eigenvalue GAMMA=   0.8884
  1.1160  0.6608

 Free energy of the ion-electron system (eV)
  ---------------------------------------------------
  alpha Z        PSCENC =        10.83448944
  Ewald energy   TEWEN  =     60208.18942089
  -Hartree energ DENC   =    -85425.27077966
  -exchange      EXHF   =         0.00000000
  -V(xc)+E(xc)   XCENC  =      1011.41850486
  PAW double counting   =     25412.60064241   -27601.58523148
  entropy T*S    EENTRO =         0.00000000
  eigenvalues    EBANDS =     -1331.10406861
  atomic energy  EATOM  =     27818.71169316
  Solvation  Ediel_sol  =         0.00000000
  ---------------------------------------------------
  free energy    TOTEN  =       103.79467101 eV

  energy without entropy =      103.79467101  energy(sigma->0) =      103.79467101


--------------------------------------------------------------------------------------------------------




--------------------------------------- Iteration      1(   8)  ---------------------------------------


    POTLOK:  cpu time    0.9520: real time    0.9572
    SETDIJ:  cpu time    0.0120: real time    0.0144
     EDDAV:  cpu time   12.0360: real time   12.0349
       DOS:  cpu time    0.0000: real time    0.0006
    CHARGE:  cpu time    0.5680: real time    0.5666
    MIXING:  cpu time    0.0240: real time    0.0243
    --------------------------------------------
      LOOP:  cpu time   13.5920: real time   13.5979

 eigenvalue-minimisations  :   872
 total energy-change (2. order) : 0.1343483E+02  (-0.4701222E+01)
 number of electron     219.9999934 magnetization      49.5004445
 augmentation part      140.6707663 magnetization      30.6183222

 Broyden mixing:
  rms(total) = 0.15853E+01    rms(broyden)= 0.15850E+01
  rms(prec ) = 0.16113E+01
  weight for this iteration     100.00

 eigenvalues of (default mixing * dielectric matrix)
  average eigenvalue GAMMA=   0.8159
  1.1941  0.6819  0.5718

 Free energy of the ion-electron system (eV)
  ---------------------------------------------------
  alpha Z        PSCENC =        10.83448944
  Ewald energy   TEWEN  =     60208.18942089
  -Hartree energ DENC   =    -85489.62636446
  -exchange      EXHF   =         0.00000000
  -V(xc)+E(xc)   XCENC  =      1021.27732369
  PAW double counting   =     25842.12998448   -28033.20322399
  entropy T*S    EENTRO =        -0.00000000
  eigenvalues    EBANDS =     -1261.08382634
  atomic energy  EATOM  =     27818.71169316
  Solvation  Ediel_sol  =         0.00000000
  ---------------------------------------------------
  free energy    TOTEN  =       117.22949687 eV

  energy without entropy =      117.22949687  energy(sigma->0) =      117.22949687


--------------------------------------------------------------------------------------------------------




--------------------------------------- Iteration      1(   9)  ---------------------------------------


    POTLOK:  cpu time    0.9560: real time    0.9582
    SETDIJ:  cpu time    0.0160: real time    0.0145
     EDDAV:  cpu time   11.6120: real time   11.6099
       DOS:  cpu time    0.0000: real time    0.0006
    CHARGE:  cpu time    0.5640: real time    0.5643
    MIXING:  cpu time    0.0240: real time    0.0256
    --------------------------------------------
      LOOP:  cpu time   13.1720: real time   13.1731

 eigenvalue-minimisations  :   832
 total energy-change (2. order) :-0.1202655E+02  (-0.1265013E+01)
 number of electron     219.9999907 magnetization      44.9968419
 augmentation part      141.3479751 magnetization      26.5798514

 Broyden mixing:
  rms(total) = 0.11039E+01    rms(broyden)= 0.11036E+01
  rms(prec ) = 0.11110E+01
  weight for this iteration     100.00

 eigenvalues of (default mixing * dielectric matrix)
  average eigenvalue GAMMA=   0.9299
  1.2964  1.2964  0.6921  0.4348

 Free energy of the ion-electron system (eV)
  ---------------------------------------------------
  alpha Z        PSCENC =        10.83448944
  Ewald energy   TEWEN  =     60208.18942089
  -Hartree energ DENC   =    -85470.60324196
  -exchange      EXHF   =         0.00000000
  -V(xc)+E(xc)   XCENC  =      1010.09157112
  PAW double counting   =     25949.12195886   -28128.67353813
  entropy T*S    EENTRO =         0.00000000
  eigenvalues    EBANDS =     -1292.46940557
  atomic energy  EATOM  =     27818.71169316
  Solvation  Ediel_sol  =         0.00000000
  ---------------------------------------------------
  free energy    TOTEN  =       105.20294781 eV

  energy without entropy =      105.20294781  energy(sigma->0) =      105.20294781


--------------------------------------------------------------------------------------------------------




--------------------------------------- Iteration      1(  10)  ---------------------------------------


    POTLOK:  cpu time    0.9480: real time    0.9579
    SETDIJ:  cpu time    0.0160: real time    0.0143
     EDDAV:  cpu time   13.4160: real time   13.4160
       DOS:  cpu time    0.0000: real time    0.0006
    CHARGE:  cpu time    0.5600: real time    0.5593
    MIXING:  cpu time    0.0280: real time    0.0273
    --------------------------------------------
      LOOP:  cpu time   14.9680: real time   14.9753

 eigenvalue-minimisations  :  1000
 total energy-change (2. order) :-0.4405952E+02  (-0.2993764E+01)
 number of electron     219.9999901 magnetization      41.4319161
 augmentation part      141.8850835 magnetization      26.3689595

 Broyden mixing:
  rms(total) = 0.95460E+00    rms(broyden)= 0.95399E+00
  rms(prec ) = 0.96797E+00
  weight for this iteration     100.00

 eigenvalues of (default mixing * dielectric matrix)
  average eigenvalue GAMMA=   1.0117
  2.0613  1.3731  0.6461  0.5279  0.4499

 Free energy of the ion-electron system (eV)
  ---------------------------------------------------
  alpha Z        PSCENC =        10.83448944
  Ewald energy   TEWEN  =     60208.18942089
  -Hartree energ DENC   =    -85457.85944036
  -exchange      EXHF   =         0.00000000
  -V(xc)+E(xc)   XCENC  =       975.76110030
  PAW double counting   =     26072.27560018   -28229.75575965
  entropy T*S    EENTRO =         0.00000000
  eigenvalues    EBANDS =     -1337.01367440
  atomic energy  EATOM  =     27818.71169316
  Solvation  Ediel_sol  =         0.00000000
  ---------------------------------------------------
  free energy    TOTEN  =        61.14342955 eV

  energy without entropy =       61.14342955  energy(sigma->0) =       61.14342955


--------------------------------------------------------------------------------------------------------




--------------------------------------- Iteration      1(  11)  ---------------------------------------


    POTLOK:  cpu time    0.9520: real time    0.9605
    SETDIJ:  cpu time    0.0120: real time    0.0139
     EDDAV:  cpu time   12.1800: real time   12.1790
       DOS:  cpu time    0.0000: real time    0.0006
    CHARGE:  cpu time    0.5600: real time    0.5582
    MIXING:  cpu time    0.0280: real time    0.0286
    --------------------------------------------
      LOOP:  cpu time   13.7320: real time   13.7409

 eigenvalue-minimisations  :   880
 total energy-change (2. order) :-0.1759713E+02  (-0.1326051E+01)
 number of electron     219.9999913 magnetization      38.5356245
 augmentation part      141.9326509 magnetization      24.5428173

 Broyden mixing:
  rms(total) = 0.69323E+00    rms(broyden)= 0.69296E+00
  rms(prec ) = 0.69940E+00
  weight for this iteration     100.00

 eigenvalues of (default mixing * dielectric matrix)
  average eigenvalue GAMMA=   1.0015
  2.3712  1.4347  0.6209  0.6209  0.5568  0.4045

 Free energy of the ion-electron system (eV)
  ---------------------------------------------------
  alpha Z        PSCENC =        10.83448944
  Ewald energy   TEWEN  =     60208.18942089
  -Hartree energ DENC   =    -85465.62506236
  -exchange      EXHF   =         0.00000000
  -V(xc)+E(xc)   XCENC  =       962.41000942
  PAW double counting   =     26158.67497581   -28308.20160763
  entropy T*S    EENTRO =         0.00000000
  eigenvalues    EBANDS =     -1341.44761523
  atomic energy  EATOM  =     27818.71169316
  Solvation  Ediel_sol  =         0.00000000
  ---------------------------------------------------
  free energy    TOTEN  =        43.54630351 eV

  energy without entropy =       43.54630351  energy(sigma->0) =       43.54630351


--------------------------------------------------------------------------------------------------------




--------------------------------------- Iteration      1(  12)  ---------------------------------------


    POTLOK:  cpu time    0.9520: real time    0.9573
    SETDIJ:  cpu time    0.0160: real time    0.0148
     EDDAV:  cpu time   11.6640: real time   11.6631
       DOS:  cpu time    0.0000: real time    0.0006
    CHARGE:  cpu time    0.5560: real time    0.5576
    MIXING:  cpu time    0.0320: real time    0.0304
    --------------------------------------------
      LOOP:  cpu time   13.2200: real time   13.2239

 eigenvalue-minimisations  :   832
 total energy-change (2. order) :-0.1569582E+02  (-0.8780320E+00)
 number of electron     219.9999913 magnetization      33.8752148
 augmentation part      141.6985025 magnetization      22.3763454

 Broyden mixing:
  rms(total) = 0.58499E+00    rms(broyden)= 0.58432E+00
  rms(prec ) = 0.58875E+00
  weight for this iteration     100.00

 eigenvalues of (default mixing * dielectric matrix)
  average eigenvalue GAMMA=   1.0623
  3.0077  1.3527  0.7815  0.7815  0.6813  0.4157  0.4157

 Free energy of the ion-electron system (eV)
  ---------------------------------------------------
  alpha Z        PSCENC =        10.83448944
  Ewald energy   TEWEN  =     60208.18942089
  -Hartree energ DENC   =    -85480.39166427
  -exchange      EXHF   =         0.00000000
  -V(xc)+E(xc)   XCENC  =       950.44702630
  PAW double counting   =     26165.30604281   -28315.24449083
  entropy T*S    EENTRO =         0.00000000
  eigenvalues    EBANDS =     -1330.00202920
  atomic energy  EATOM  =     27818.71169316
  Solvation  Ediel_sol  =         0.00000000
  ---------------------------------------------------
  free energy    TOTEN  =        27.85048830 eV

  energy without entropy =       27.85048830  energy(sigma->0) =       27.85048830


--------------------------------------------------------------------------------------------------------




--------------------------------------- Iteration      1(  13)  ---------------------------------------


    POTLOK:  cpu time    0.9560: real time    0.9576
    SETDIJ:  cpu time    0.0160: real time    0.0153
     EDDAV:  cpu time   11.9640: real time   11.9638
       DOS:  cpu time    0.0000: real time    0.0006
    CHARGE:  cpu time    0.5600: real time    0.5599
    MIXING:  cpu time    0.0360: real time    0.0328
    --------------------------------------------
      LOOP:  cpu time   13.5320: real time   13.5299

 eigenvalue-minimisations  :   860
 total energy-change (2. order) :-0.1989188E+02  (-0.1336314E+01)
 number of electron     219.9999914 magnetization      28.6848098
 augmentation part      141.1236787 magnetization      19.6544187

 Broyden mixing:
  rms(total) = 0.50604E+00    rms(broyden)= 0.50520E+00
  rms(prec ) = 0.50968E+00
  weight for this iteration     100.00

 eigenvalues of (default mixing * dielectric matrix)
  average eigenvalue GAMMA=   1.1745
  4.0619  1.3111  1.3111  0.6971  0.6971  0.4517  0.4517  0.4146

 Free energy of the ion-electron system (eV)
  ---------------------------------------------------
  alpha Z        PSCENC =        10.83448944
  Ewald energy   TEWEN  =     60208.18942089
  -Hartree energ DENC   =    -85513.57631431
  -exchange      EXHF   =         0.00000000
  -V(xc)+E(xc)   XCENC  =       936.31536676
  PAW double counting   =     26196.12574242   -28348.66153959
  entropy T*S    EENTRO =         0.00000000
  eigenvalues    EBANDS =     -1299.98025077
  atomic energy  EATOM  =     27818.71169316
  Solvation  Ediel_sol  =         0.00000000
  ---------------------------------------------------
  free energy    TOTEN  =         7.95860801 eV

  energy without entropy =        7.95860801  energy(sigma->0) =        7.95860801


--------------------------------------------------------------------------------------------------------




--------------------------------------- Iteration      1(  14)  ---------------------------------------


    POTLOK:  cpu time    0.9440: real time    0.9559
    SETDIJ:  cpu time    0.0160: real time    0.0147
     EDDAV:  cpu time   12.7320: real time   12.7317
       DOS:  cpu time    0.0000: real time    0.0006
    CHARGE:  cpu time    0.5600: real time    0.5599
    MIXING:  cpu time    0.0360: real time    0.0356
    --------------------------------------------
      LOOP:  cpu time   14.2880: real time   14.2984

 eigenvalue-minimisations  :   932
 total energy-change (2. order) :-0.1893196E+02  (-0.1424360E+01)
 number of electron     219.9999914 magnetization      25.0703629
 augmentation part      140.5838376 magnetization      17.1285354

 Broyden mixing:
  rms(total) = 0.41102E+00    rms(broyden)= 0.41085E+00
  rms(prec ) = 0.41683E+00
  weight for this iteration     100.00

 eigenvalues of (default mixing * dielectric matrix)
  average eigenvalue GAMMA=   1.2821
  5.0592  2.0481  0.9210  0.7668  0.7668  0.6058  0.5319  0.4195  0.4195

 Free energy of the ion-electron system (eV)
  ---------------------------------------------------
  alpha Z        PSCENC =        10.83448944
  Ewald energy   TEWEN  =     60208.18942089
  -Hartree energ DENC   =    -85537.52026679
  -exchange      EXHF   =         0.00000000
  -V(xc)+E(xc)   XCENC  =       922.22901859
  PAW double counting   =     26197.84420071   -28350.72768606
  entropy T*S    EENTRO =         0.00000000
  eigenvalues    EBANDS =     -1280.53422508
  atomic energy  EATOM  =     27818.71169316
  Solvation  Ediel_sol  =         0.00000000
  ---------------------------------------------------
  free energy    TOTEN  =       -10.97335514 eV

  energy without entropy =      -10.97335514  energy(sigma->0) =      -10.97335514


--------------------------------------------------------------------------------------------------------




--------------------------------------- Iteration      1(  15)  ---------------------------------------


    POTLOK:  cpu time    0.9480: real time    0.9763
    SETDIJ:  cpu time    0.0120: real time    0.0144
     EDDAV:  cpu time   12.0120: real time   12.0095
       DOS:  cpu time    0.0000: real time    0.0006
    CHARGE:  cpu time    0.5640: real time    0.5633
    MIXING:  cpu time    0.0400: real time    0.0397
    --------------------------------------------
      LOOP:  cpu time   13.5760: real time   13.6038

 eigenvalue-minimisations  :   864
 total energy-change (2. order) :-0.1895898E+02  (-0.1452528E+01)
 number of electron     219.9999915 magnetization      23.0584456
 augmentation part      140.8225006 magnetization      18.0061684

 Broyden mixing:
  rms(total) = 0.32952E+00    rms(broyden)= 0.32853E+00
  rms(prec ) = 0.33692E+00
  weight for this iteration     100.00

 eigenvalues of (default mixing * dielectric matrix)
  average eigenvalue GAMMA=   1.2575
  5.5232  2.1565  0.9534  0.7697  0.7697  0.5921  0.5921  0.4407  0.4407  0.3369

 Free energy of the ion-electron system (eV)
  ---------------------------------------------------
  alpha Z        PSCENC =        10.83448944
  Ewald energy   TEWEN  =     60208.18942089
  -Hartree energ DENC   =    -85504.91074378
  -exchange      EXHF   =         0.00000000
  -V(xc)+E(xc)   XCENC  =       906.72712509
  PAW double counting   =     26060.30324305   -28206.79714578
  entropy T*S    EENTRO =         0.00000000
  eigenvalues    EBANDS =     -1322.99041245
  atomic energy  EATOM  =     27818.71169316
  Solvation  Ediel_sol  =         0.00000000
  ---------------------------------------------------
  free energy    TOTEN  =       -29.93233039 eV

  energy without entropy =      -29.93233039  energy(sigma->0) =      -29.93233039


--------------------------------------------------------------------------------------------------------




--------------------------------------- Iteration      1(  16)  ---------------------------------------


    POTLOK:  cpu time    0.9480: real time    0.9614
    SETDIJ:  cpu time    0.0160: real time    0.0144
     EDDAV:  cpu time   12.2880: real time   12.2902
       DOS:  cpu time    0.0040: real time    0.0005
    CHARGE:  cpu time    0.5560: real time    0.5594
    MIXING:  cpu time    0.0480: real time    0.0447
    --------------------------------------------
      LOOP:  cpu time   13.8600: real time   13.8706

 eigenvalue-minimisations  :   896
 total energy-change (2. order) :-0.5082736E+01  (-0.3133925E+00)
 number of electron     219.9999915 magnetization      21.1324134
 augmentation part      140.8589400 magnetization      18.2394620

 Broyden mixing:
  rms(total) = 0.31903E+00    rms(broyden)= 0.31820E+00
  rms(prec ) = 0.32466E+00
  weight for this iteration     100.00

 eigenvalues of (default mixing * dielectric matrix)
  average eigenvalue GAMMA=   1.2121
  5.9253  2.1409  1.0510  0.7093  0.7093  0.5603  0.5603  0.4216  0.4216  0.4169
  0.4169

 Free energy of the ion-electron system (eV)
  ---------------------------------------------------
  alpha Z        PSCENC =        10.83448944
  Ewald energy   TEWEN  =     60208.18942089
  -Hartree energ DENC   =    -85496.37855719
  -exchange      EXHF   =         0.00000000
  -V(xc)+E(xc)   XCENC  =       902.81245180
  PAW double counting   =     26026.51663445   -28171.38903023
  entropy T*S    EENTRO =         0.00000000
  eigenvalues    EBANDS =     -1334.31216834
  atomic energy  EATOM  =     27818.71169316
  Solvation  Ediel_sol  =         0.00000000
  ---------------------------------------------------
  free energy    TOTEN  =       -35.01506601 eV

  energy without entropy =      -35.01506601  energy(sigma->0) =      -35.01506601


--------------------------------------------------------------------------------------------------------




--------------------------------------- Iteration      1(  17)  ---------------------------------------


    POTLOK:  cpu time    0.9560: real time    0.9563
    SETDIJ:  cpu time    0.0120: real time    0.0142
     EDDAV:  cpu time   12.4720: real time   12.4708
       DOS:  cpu time    0.0000: real time    0.0007
    CHARGE:  cpu time    0.5560: real time    0.5562
    MIXING:  cpu time    0.0520: real time    0.0506
    --------------------------------------------
      LOOP:  cpu time   14.0480: real time   14.0489

 eigenvalue-minimisations  :   912
 total energy-change (2. order) :-0.2292596E+01  (-0.1079001E+00)
 number of electron     219.9999916 magnetization      18.4717085
 augmentation part      140.8742311 magnetization      15.9070446

 Broyden mixing:
  rms(total) = 0.25121E+00    rms(broyden)= 0.25115E+00
  rms(prec ) = 0.25668E+00
  weight for this iteration     100.00

 eigenvalues of (default mixing * dielectric matrix)
  average eigenvalue GAMMA=   1.3143
  6.7587  2.2463  0.9646  0.9646  0.9245  0.9245  0.6396  0.6396  0.4692  0.4692
  0.3953  0.3761

 Free energy of the ion-electron system (eV)
  ---------------------------------------------------
  alpha Z        PSCENC =        10.83448944
  Ewald energy   TEWEN  =     60208.18942089
  -Hartree energ DENC   =    -85497.49849592
  -exchange      EXHF   =         0.00000000
  -V(xc)+E(xc)   XCENC  =       901.02129483
  PAW double counting   =     26020.62640579   -28165.45647550
  entropy T*S    EENTRO =         0.00000000
  eigenvalues    EBANDS =     -1333.73599464
  atomic energy  EATOM  =     27818.71169316
  Solvation  Ediel_sol  =         0.00000000
  ---------------------------------------------------
  free energy    TOTEN  =       -37.30766195 eV

  energy without entropy =      -37.30766195  energy(sigma->0) =      -37.30766195


--------------------------------------------------------------------------------------------------------




--------------------------------------- Iteration      1(  18)  ---------------------------------------


    POTLOK:  cpu time    0.9480: real time    0.9619
    SETDIJ:  cpu time    0.0160: real time    0.0145
     EDDAV:  cpu time   12.9920: real time   12.9921
       DOS:  cpu time    0.0000: real time    0.0005
    CHARGE:  cpu time    0.5600: real time    0.5593
    MIXING:  cpu time    0.0560: real time    0.0582
    --------------------------------------------
      LOOP:  cpu time   14.5720: real time   14.5865

 eigenvalue-minimisations  :   960
 total energy-change (2. order) :-0.3940105E+01  (-0.1549726E+00)
 number of electron     219.9999914 magnetization      15.6226631
 augmentation part      140.9275999 magnetization      13.4239826

 Broyden mixing:
  rms(total) = 0.20363E+00    rms(broyden)= 0.20360E+00
  rms(prec ) = 0.20806E+00
  weight for this iteration     100.00

 eigenvalues of (default mixing * dielectric matrix)
  average eigenvalue GAMMA=   1.3800
  7.7811  2.4637  1.1780  1.1780  0.9056  0.9056  0.6554  0.6554  0.5035  0.5035
  0.4421  0.3841  0.3841

 Free energy of the ion-electron system (eV)
  ---------------------------------------------------
  alpha Z        PSCENC =        10.83448944
  Ewald energy   TEWEN  =     60208.18942089
  -Hartree energ DENC   =    -85485.09838713
  -exchange      EXHF   =         0.00000000
  -V(xc)+E(xc)   XCENC  =       897.55552263
  PAW double counting   =     25976.43378786   -28121.26070326
  entropy T*S    EENTRO =         0.00000000
  eigenvalues    EBANDS =     -1346.61359074
  atomic energy  EATOM  =     27818.71169316
  Solvation  Ediel_sol  =         0.00000000
  ---------------------------------------------------
  free energy    TOTEN  =       -41.24776715 eV

  energy without entropy =      -41.24776715  energy(sigma->0) =      -41.24776715


--------------------------------------------------------------------------------------------------------




--------------------------------------- Iteration      1(  19)  ---------------------------------------


    POTLOK:  cpu time    0.9480: real time    0.9606
    SETDIJ:  cpu time    0.0120: real time    0.0146
     EDDAV:  cpu time   12.7360: real time   12.7325
       DOS:  cpu time    0.0000: real time    0.0006
    CHARGE:  cpu time    0.5600: real time    0.5621
    MIXING:  cpu time    0.0680: real time    0.0660
    --------------------------------------------
      LOOP:  cpu time   14.3240: real time   14.3363

 eigenvalue-minimisations  :   936
 total energy-change (2. order) :-0.3956172E+01  (-0.1020142E+00)
 number of electron     219.9999914 magnetization      13.7886099
 augmentation part      141.0250231 magnetization      13.4974949

 Broyden mixing:
  rms(total) = 0.22736E+00    rms(broyden)= 0.22661E+00
  rms(prec ) = 0.23339E+00
  weight for this iteration     100.00

 eigenvalues of (default mixing * dielectric matrix)
  average eigenvalue GAMMA=   1.3463
  8.3132  2.3803  1.4395  1.0113  1.0113  0.7832  0.6831  0.6831  0.5262  0.5262
  0.4213  0.4213  0.3751  0.2729

 Free energy of the ion-electron system (eV)
  ---------------------------------------------------
  alpha Z        PSCENC =        10.83448944
  Ewald energy   TEWEN  =     60208.18942089
  -Hartree energ DENC   =    -85463.43492083
  -exchange      EXHF   =         0.00000000
  -V(xc)+E(xc)   XCENC  =       893.75782313
  PAW double counting   =     25914.22295660   -28059.49583459
  entropy T*S    EENTRO =         0.00000000
  eigenvalues    EBANDS =     -1367.98956673
  atomic energy  EATOM  =     27818.71169316
  Solvation  Ediel_sol  =         0.00000000
  ---------------------------------------------------
  free energy    TOTEN  =       -45.20393893 eV

  energy without entropy =      -45.20393893  energy(sigma->0) =      -45.20393893


--------------------------------------------------------------------------------------------------------




--------------------------------------- Iteration      1(  20)  ---------------------------------------


    POTLOK:  cpu time    0.9480: real time    0.9595
    SETDIJ:  cpu time    0.0160: real time    0.0140
     EDDAV:  cpu time   12.9880: real time   12.9882
       DOS:  cpu time    0.0000: real time    0.0006
    CHARGE:  cpu time    0.5600: real time    0.5614
    MIXING:  cpu time    0.0760: real time    0.0734
    --------------------------------------------
      LOOP:  cpu time   14.5880: real time   14.5971

 eigenvalue-minimisations  :   960
 total energy-change (2. order) :-0.1053862E+01  (-0.2712106E-01)
 number of electron     219.9999913 magnetization      12.1401582
 augmentation part      141.0571791 magnetization      11.9833600

 Broyden mixing:
  rms(total) = 0.16573E+00    rms(broyden)= 0.16568E+00
  rms(prec ) = 0.17131E+00
  weight for this iteration     100.00

 eigenvalues of (default mixing * dielectric matrix)
  average eigenvalue GAMMA=   1.4020
  8.9852  2.3507  1.8130  1.0745  0.9723  0.9723  0.7914  0.7914  0.5672  0.5672
  0.5056  0.4428  0.4428  0.3771  0.3771

 Free energy of the ion-electron system (eV)
  ---------------------------------------------------
  alpha Z        PSCENC =        10.83448944
  Ewald energy   TEWEN  =     60208.18942089
  -Hartree energ DENC   =    -85459.27874463
  -exchange      EXHF   =         0.00000000
  -V(xc)+E(xc)   XCENC  =       892.73880165
  PAW double counting   =     25909.27766405   -28054.87633810
  entropy T*S    EENTRO =         0.00000000
  eigenvalues    EBANDS =     -1371.85478715
  atomic energy  EATOM  =     27818.71169316
  Solvation  Ediel_sol  =         0.00000000
  ---------------------------------------------------
  free energy    TOTEN  =       -46.25780069 eV

  energy without entropy =      -46.25780069  energy(sigma->0) =      -46.25780069


--------------------------------------------------------------------------------------------------------




--------------------------------------- Iteration      1(  21)  ---------------------------------------


    POTLOK:  cpu time    0.9480: real time    0.9596
    SETDIJ:  cpu time    0.0160: real time    0.0142
     EDDAV:  cpu time   11.5200: real time   11.5220
       DOS:  cpu time    0.0040: real time    0.0007
    CHARGE:  cpu time    0.5600: real time    0.5615
    MIXING:  cpu time    0.0800: real time    0.0809
    --------------------------------------------
      LOOP:  cpu time   13.1280: real time   13.1390

 eigenvalue-minimisations  :   824
 total energy-change (2. order) :-0.1332487E+01  (-0.2255345E-01)
 number of electron     219.9999912 magnetization       9.5457622
 augmentation part      141.0836388 magnetization       9.4389735

 Broyden mixing:
  rms(total) = 0.12880E+00    rms(broyden)= 0.12879E+00
  rms(prec ) = 0.13341E+00
  weight for this iteration     100.00

 eigenvalues of (default mixing * dielectric matrix)
  average eigenvalue GAMMA=   1.4659
  9.9368  2.2957  2.2957  1.2863  1.1159  1.1159  0.7750  0.7750  0.5944  0.5944
  0.5257  0.5257  0.4366  0.4366  0.3720  0.3720

 Free energy of the ion-electron system (eV)
  ---------------------------------------------------
  alpha Z        PSCENC =        10.83448944
  Ewald energy   TEWEN  =     60208.18942089
  -Hartree energ DENC   =    -85448.20460673
  -exchange      EXHF   =         0.00000000
  -V(xc)+E(xc)   XCENC  =       891.39146609
  PAW double counting   =     25895.17429371   -28040.85392271
  entropy T*S    EENTRO =         0.00000000
  eigenvalues    EBANDS =     -1382.83312169
  atomic energy  EATOM  =     27818.71169316
  Solvation  Ediel_sol  =         0.00000000
  ---------------------------------------------------
  free energy    TOTEN  =       -47.59028785 eV

  energy without entropy =      -47.59028785  energy(sigma->0) =      -47.59028785


--------------------------------------------------------------------------------------------------------




--------------------------------------- Iteration      1(  22)  ---------------------------------------


    POTLOK:  cpu time    0.9480: real time    0.9590
    SETDIJ:  cpu time    0.0160: real time    0.0145
     EDDAV:  cpu time   12.3720: real time   12.3716
       DOS:  cpu time    0.0000: real time    0.0006
    CHARGE:  cpu time    0.5640: real time    0.5633
    MIXING:  cpu time    0.0880: real time    0.0885
    --------------------------------------------
      LOOP:  cpu time   13.9880: real time   13.9975

 eigenvalue-minimisations  :   904
 total energy-change (2. order) :-0.1680126E+01  (-0.2806077E-01)
 number of electron     219.9999913 magnetization       7.5927183
 augmentation part      141.0603917 magnetization       7.5460746

 Broyden mixing:
  rms(total) = 0.79075E-01    rms(broyden)= 0.79049E-01
  rms(prec ) = 0.81153E-01
  weight for this iteration     100.00

 eigenvalues of (default mixing * dielectric matrix)
  average eigenvalue GAMMA=   1.5226
 10.8600  2.9684  2.2646  1.1225  1.1225  1.1416  0.9605  0.8005  0.8005  0.5744
  0.5744  0.5993  0.4956  0.4254  0.4254  0.3745  0.3745

 Free energy of the ion-electron system (eV)
  ---------------------------------------------------
  alpha Z        PSCENC =        10.83448944
  Ewald energy   TEWEN  =     60208.18942089
  -Hartree energ DENC   =    -85435.61447467
  -exchange      EXHF   =         0.00000000
  -V(xc)+E(xc)   XCENC  =       889.75179162
  PAW double counting   =     25887.98203810   -28034.33587599
  entropy T*S    EENTRO =         0.00000000
  eigenvalues    EBANDS =     -1394.78949631
  atomic energy  EATOM  =     27818.71169316
  Solvation  Ediel_sol  =         0.00000000
  ---------------------------------------------------
  free energy    TOTEN  =       -49.27041376 eV

  energy without entropy =      -49.27041376  energy(sigma->0) =      -49.27041376


--------------------------------------------------------------------------------------------------------




--------------------------------------- Iteration      1(  23)  ---------------------------------------


    POTLOK:  cpu time    0.9520: real time    0.9639
    SETDIJ:  cpu time    0.0120: real time    0.0152
     EDDAV:  cpu time   11.6080: real time   11.6077
       DOS:  cpu time    0.0040: real time    0.0006
    CHARGE:  cpu time    0.5600: real time    0.5619
    MIXING:  cpu time    0.0960: real time    0.0963
    --------------------------------------------
      LOOP:  cpu time   13.2320: real time   13.2457

 eigenvalue-minimisations  :   832
 total energy-change (2. order) :-0.1109751E+01  (-0.1425189E-01)
 number of electron     219.9999914 magnetization       6.5490428
 augmentation part      141.0401239 magnetization       6.5479342

 Broyden mixing:
  rms(total) = 0.70683E-01    rms(broyden)= 0.70674E-01
  rms(prec ) = 0.72507E-01
  weight for this iteration     100.00

 eigenvalues of (default mixing * dielectric matrix)
  average eigenvalue GAMMA=   1.5425
 11.2460  3.3447  2.2612  1.3640  1.3640  1.0640  1.0640  0.8024  0.8024  0.6507
  0.5758  0.5758  0.5238  0.5238  0.4268  0.4268  0.3739  0.3739

 Free energy of the ion-electron system (eV)
  ---------------------------------------------------
  alpha Z        PSCENC =        10.83448944
  Ewald energy   TEWEN  =     60208.18942089
  -Hartree energ DENC   =    -85425.09479991
  -exchange      EXHF   =         0.00000000
  -V(xc)+E(xc)   XCENC  =       888.63093240
  PAW double counting   =     25886.60774615   -28033.45279927
  entropy T*S    EENTRO =         0.00000000
  eigenvalues    EBANDS =     -1404.80684803
  atomic energy  EATOM  =     27818.71169316
  Solvation  Ediel_sol  =         0.00000000
  ---------------------------------------------------
  free energy    TOTEN  =       -50.38016516 eV

  energy without entropy =      -50.38016516  energy(sigma->0) =      -50.38016516


--------------------------------------------------------------------------------------------------------




--------------------------------------- Iteration      1(  24)  ---------------------------------------


    POTLOK:  cpu time    0.9600: real time    0.9608
    SETDIJ:  cpu time    0.0120: real time    0.0139
     EDDAV:  cpu time   10.8320: real time   10.8289
       DOS:  cpu time    0.0000: real time    0.0006
    CHARGE:  cpu time    0.5640: real time    0.5644
    MIXING:  cpu time    0.1040: real time    0.1047
    --------------------------------------------
      LOOP:  cpu time   12.4720: real time   12.4732

 eigenvalue-minimisations  :   760
 total energy-change (2. order) :-0.5201326E+00  (-0.2983404E-02)
 number of electron     219.9999913 magnetization       5.1640073
 augmentation part      141.0307742 magnetization       5.1625174

 Broyden mixing:
  rms(total) = 0.58620E-01    rms(broyden)= 0.58616E-01
  rms(prec ) = 0.60081E-01
  weight for this iteration     100.00

 eigenvalues of (default mixing * dielectric matrix)
  average eigenvalue GAMMA=   1.5691
 11.5002  3.9221  2.0659  2.0659  1.1133  1.1133  1.1466  0.9325  0.7815  0.7815
  0.6071  0.6071  0.5568  0.5568  0.4555  0.4290  0.4290  0.3742  0.3742

 Free energy of the ion-electron system (eV)
  ---------------------------------------------------
  alpha Z        PSCENC =        10.83448944
  Ewald energy   TEWEN  =     60208.18942089
  -Hartree energ DENC   =    -85418.33901752
  -exchange      EXHF   =         0.00000000
  -V(xc)+E(xc)   XCENC  =       888.08067334
  PAW double counting   =     25890.66513001   -28037.69380153
  entropy T*S    EENTRO =         0.00000000
  eigenvalues    EBANDS =     -1411.34888551
  atomic energy  EATOM  =     27818.71169316
  Solvation  Ediel_sol  =         0.00000000
  ---------------------------------------------------
  free energy    TOTEN  =       -50.90029772 eV

  energy without entropy =      -50.90029772  energy(sigma->0) =      -50.90029772


--------------------------------------------------------------------------------------------------------




--------------------------------------- Iteration      1(  25)  ---------------------------------------


    POTLOK:  cpu time    0.9480: real time    0.9573
    SETDIJ:  cpu time    0.0160: real time    0.0140
     EDDAV:  cpu time   12.5560: real time   12.5560
       DOS:  cpu time    0.0000: real time    0.0006
    CHARGE:  cpu time    0.5640: real time    0.5628
    MIXING:  cpu time    0.1120: real time    0.1133
    --------------------------------------------
      LOOP:  cpu time   14.1960: real time   14.2039

 eigenvalue-minimisations  :   920
 total energy-change (2. order) :-0.7117140E+00  (-0.3351599E-02)
 number of electron     219.9999913 magnetization       3.9139942
 augmentation part      141.0339009 magnetization       3.9082665

 Broyden mixing:
  rms(total) = 0.39168E-01    rms(broyden)= 0.39161E-01
  rms(prec ) = 0.39961E-01
  weight for this iteration     100.00

 eigenvalues of (default mixing * dielectric matrix)
  average eigenvalue GAMMA=   1.6271
 11.8879  4.8617  2.1983  2.1983  1.3260  1.3260  1.0938  1.0938  0.7924  0.7924
  0.7076  0.5772  0.5772  0.5334  0.5334  0.3744  0.3744  0.4291  0.4291  0.4344

 Free energy of the ion-electron system (eV)
  ---------------------------------------------------
  alpha Z        PSCENC =        10.83448944
  Ewald energy   TEWEN  =     60208.18942089
  -Hartree energ DENC   =    -85407.52147937
  -exchange      EXHF   =         0.00000000
  -V(xc)+E(xc)   XCENC  =       887.29973169
  PAW double counting   =     25894.06958204   -28041.02345047
  entropy T*S    EENTRO =         0.00000000
  eigenvalues    EBANDS =     -1422.17199904
  atomic energy  EATOM  =     27818.71169316
  Solvation  Ediel_sol  =         0.00000000
  ---------------------------------------------------
  free energy    TOTEN  =       -51.61201168 eV

  energy without entropy =      -51.61201168  energy(sigma->0) =      -51.61201168


--------------------------------------------------------------------------------------------------------




--------------------------------------- Iteration      1(  26)  ---------------------------------------


    POTLOK:  cpu time    0.9480: real time    1.0272
    SETDIJ:  cpu time    0.0160: real time    0.0139
     EDDAV:  cpu time   12.6600: real time   12.6605
       DOS:  cpu time    0.0000: real time    0.0005
    CHARGE:  cpu time    0.5600: real time    0.5583
    MIXING:  cpu time    0.1240: real time    0.1224
    --------------------------------------------
      LOOP:  cpu time   14.3080: real time   14.3828

 eigenvalue-minimisations  :   928
 total energy-change (2. order) :-0.5574870E+00  (-0.1281117E-02)
 number of electron     219.9999913 magnetization       3.0082861
 augmentation part      141.0454627 magnetization       3.0027221

 Broyden mixing:
  rms(total) = 0.31042E-01    rms(broyden)= 0.31038E-01
  rms(prec ) = 0.31679E-01
  weight for this iteration     100.00

 eigenvalues of (default mixing * dielectric matrix)
  average eigenvalue GAMMA=   1.6563
 12.2364  5.4505  2.3918  2.3918  1.4504  1.1303  1.1303  1.0439  1.0439  0.7896
  0.7896  0.5698  0.5698  0.6243  0.5623  0.5623  0.3743  0.3743  0.4302  0.4302
  0.4367

 Free energy of the ion-electron system (eV)
  ---------------------------------------------------
  alpha Z        PSCENC =        10.83448944
  Ewald energy   TEWEN  =     60208.18942089
  -Hartree energ DENC   =    -85398.81069095
  -exchange      EXHF   =         0.00000000
  -V(xc)+E(xc)   XCENC  =       886.68142992
  PAW double counting   =     25896.53966758   -28043.43992010
  entropy T*S    EENTRO =         0.00000000
  eigenvalues    EBANDS =     -1430.87558859
  atomic energy  EATOM  =     27818.71169316
  Solvation  Ediel_sol  =         0.00000000
  ---------------------------------------------------
  free energy    TOTEN  =       -52.16949866 eV

  energy without entropy =      -52.16949866  energy(sigma->0) =      -52.16949866


--------------------------------------------------------------------------------------------------------




--------------------------------------- Iteration      1(  27)  ---------------------------------------


    POTLOK:  cpu time    0.9480: real time    1.0117
    SETDIJ:  cpu time    0.0160: real time    0.0140
     EDDAV:  cpu time   11.6160: real time   11.6163
       DOS:  cpu time    0.0000: real time    0.0006
    CHARGE:  cpu time    0.5600: real time    0.5596
    MIXING:  cpu time    0.1320: real time    0.1315
    --------------------------------------------
      LOOP:  cpu time   13.2720: real time   13.3338

 eigenvalue-minimisations  :   832
 total energy-change (2. order) :-0.2987284E+00  (-0.5818785E-03)
 number of electron     219.9999913 magnetization       2.0560357
 augmentation part      141.0412422 magnetization       2.0537278

 Broyden mixing:
  rms(total) = 0.25184E-01    rms(broyden)= 0.25182E-01
  rms(prec ) = 0.25718E-01
  weight for this iteration     100.00

 eigenvalues of (default mixing * dielectric matrix)
  average eigenvalue GAMMA=   1.6921
 12.4549  6.2812  2.8437  1.9299  1.9299  1.1225  1.1225  1.2045  1.2045  0.7948
  0.7948  0.7328  0.5740  0.5740  0.5591  0.5591  0.5011  0.3743  0.3743  0.4281
  0.4281  0.4373

 Free energy of the ion-electron system (eV)
  ---------------------------------------------------
  alpha Z        PSCENC =        10.83448944
  Ewald energy   TEWEN  =     60208.18942089
  -Hartree energ DENC   =    -85395.22706159
  -exchange      EXHF   =         0.00000000
  -V(xc)+E(xc)   XCENC  =       886.36555602
  PAW double counting   =     25901.61094959   -28048.52620529
  entropy T*S    EENTRO =         0.00000000
  eigenvalues    EBANDS =     -1434.42706933
  atomic energy  EATOM  =     27818.71169316
  Solvation  Ediel_sol  =         0.00000000
  ---------------------------------------------------
  free energy    TOTEN  =       -52.46822711 eV

  energy without entropy =      -52.46822711  energy(sigma->0) =      -52.46822711


--------------------------------------------------------------------------------------------------------




--------------------------------------- Iteration      1(  28)  ---------------------------------------


    POTLOK:  cpu time    0.9600: real time    0.9602
    SETDIJ:  cpu time    0.0120: real time    0.0140
     EDDAV:  cpu time   11.9880: real time   11.9856
       DOS:  cpu time    0.0000: real time    0.0007
    CHARGE:  cpu time    0.5600: real time    0.5582
    MIXING:  cpu time    0.1400: real time    0.1407
    --------------------------------------------
      LOOP:  cpu time   13.6600: real time   13.6595

 eigenvalue-minimisations  :   864
 total energy-change (2. order) :-0.3717904E+00  (-0.5060891E-03)
 number of electron     219.9999913 magnetization       1.4398061
 augmentation part      141.0417846 magnetization       1.4345119

 Broyden mixing:
  rms(total) = 0.16471E-01    rms(broyden)= 0.16468E-01
  rms(prec ) = 0.16839E-01
  weight for this iteration     100.00

 eigenvalues of (default mixing * dielectric matrix)
  average eigenvalue GAMMA=   1.7554
 12.8739  7.4445  2.9976  2.0774  2.0774  1.6865  1.1432  1.1432  0.9652  0.9652
  0.7919  0.7919  0.5695  0.5695  0.6227  0.5727  0.5727  0.3742  0.3742  0.4280
  0.4280  0.4728  0.4322

 Free energy of the ion-electron system (eV)
  ---------------------------------------------------
  alpha Z        PSCENC =        10.83448944
  Ewald energy   TEWEN  =     60208.18942089
  -Hartree energ DENC   =    -85391.54711531
  -exchange      EXHF   =         0.00000000
  -V(xc)+E(xc)   XCENC  =       885.97957759
  PAW double counting   =     25905.57377250   -28052.48861361
  entropy T*S    EENTRO =         0.00000000
  eigenvalues    EBANDS =     -1438.09324219
  atomic energy  EATOM  =     27818.71169316
  Solvation  Ediel_sol  =         0.00000000
  ---------------------------------------------------
  free energy    TOTEN  =       -52.84001753 eV

  energy without entropy =      -52.84001753  energy(sigma->0) =      -52.84001753


--------------------------------------------------------------------------------------------------------




--------------------------------------- Iteration      1(  29)  ---------------------------------------


    POTLOK:  cpu time    0.9480: real time    0.9568
    SETDIJ:  cpu time    0.0160: real time    0.0154
     EDDAV:  cpu time   12.7560: real time   12.7580
       DOS:  cpu time    0.0000: real time    0.0006
    CHARGE:  cpu time    0.5560: real time    0.5558
    MIXING:  cpu time    0.1520: real time    0.1502
    --------------------------------------------
      LOOP:  cpu time   14.4280: real time   14.4368

 eigenvalue-minimisations  :   936
 total energy-change (2. order) :-0.1958328E+00  (-0.1798730E-03)
 number of electron     219.9999913 magnetization       0.9951070
 augmentation part      141.0422997 magnetization       0.9923988

 Broyden mixing:
  rms(total) = 0.13580E-01    rms(broyden)= 0.13579E-01
  rms(prec ) = 0.13914E-01
  weight for this iteration     100.00

 eigenvalues of (default mixing * dielectric matrix)
  average eigenvalue GAMMA=   1.7882
 13.0747  8.2069  3.4222  2.2716  2.2716  1.1433  1.1433  1.1944  1.1944  1.1100
  0.9088  0.7954  0.7954  0.5738  0.5738  0.6032  0.5584  0.5584  0.3742  0.3742
  0.4283  0.4283  0.4804  0.4327

 Free energy of the ion-electron system (eV)
  ---------------------------------------------------
  alpha Z        PSCENC =        10.83448944
  Ewald energy   TEWEN  =     60208.18942089
  -Hartree energ DENC   =    -85389.66022571
  -exchange      EXHF   =         0.00000000
  -V(xc)+E(xc)   XCENC  =       885.77740416
  PAW double counting   =     25905.22219451   -28052.11531968
  entropy T*S    EENTRO =         0.00000000
  eigenvalues    EBANDS =     -1439.99550709
  atomic energy  EATOM  =     27818.71169316
  Solvation  Ediel_sol  =         0.00000000
  ---------------------------------------------------
  free energy    TOTEN  =       -53.03585032 eV

  energy without entropy =      -53.03585032  energy(sigma->0) =      -53.03585032


--------------------------------------------------------------------------------------------------------




--------------------------------------- Iteration      1(  30)  ---------------------------------------


    POTLOK:  cpu time    0.9480: real time    0.9610
    SETDIJ:  cpu time    0.0160: real time    0.0135
     EDDAV:  cpu time   10.8360: real time   10.8352
       DOS:  cpu time    0.0000: real time    0.0006
    CHARGE:  cpu time    0.5600: real time    0.5601
    MIXING:  cpu time    0.1600: real time    0.1598
    --------------------------------------------
      LOOP:  cpu time   12.5200: real time   12.5301

 eigenvalue-minimisations  :   760
 total energy-change (2. order) :-0.1014232E+00  (-0.9988117E-04)
 number of electron     219.9999913 magnetization       0.5917696
 augmentation part      141.0400144 magnetization       0.5886713

 Broyden mixing:
  rms(total) = 0.99336E-02    rms(broyden)= 0.99325E-02
  rms(prec ) = 0.10213E-01
  weight for this iteration     100.00

 eigenvalues of (default mixing * dielectric matrix)
  average eigenvalue GAMMA=   1.8412
 13.4327  9.0292  4.0243  2.3454  2.3454  1.5395  1.5395  1.1403  1.1403  0.9613
  0.9613  0.7929  0.7929  0.6545  0.5718  0.5718  0.5683  0.5683  0.5352  0.3742
  0.3742  0.4280  0.4280  0.4791  0.4312

 Free energy of the ion-electron system (eV)
  ---------------------------------------------------
  alpha Z        PSCENC =        10.83448944
  Ewald energy   TEWEN  =     60208.18942089
  -Hartree energ DENC   =    -85389.41064371
  -exchange      EXHF   =         0.00000000
  -V(xc)+E(xc)   XCENC  =       885.68280145
  PAW double counting   =     25904.98831255   -28051.88220564
  entropy T*S    EENTRO =         0.00000000
  eigenvalues    EBANDS =     -1440.25114170
  atomic energy  EATOM  =     27818.71169316
  Solvation  Ediel_sol  =         0.00000000
  ---------------------------------------------------
  free energy    TOTEN  =       -53.13727356 eV

  energy without entropy =      -53.13727356  energy(sigma->0) =      -53.13727356


--------------------------------------------------------------------------------------------------------




--------------------------------------- Iteration      1(  31)  ---------------------------------------


    POTLOK:  cpu time    0.9480: real time    0.9588
    SETDIJ:  cpu time    0.0160: real time    0.0147
     EDDAV:  cpu time   12.2320: real time   12.2326
       DOS:  cpu time    0.0000: real time    0.0006
    CHARGE:  cpu time    0.5600: real time    0.5598
    MIXING:  cpu time    0.1680: real time    0.1674
    --------------------------------------------
      LOOP:  cpu time   13.9240: real time   13.9338

 eigenvalue-minimisations  :   888
 total energy-change (2. order) :-0.8531940E-01  (-0.7218633E-04)
 number of electron     219.9999913 magnetization       0.3969542
 augmentation part      141.0392778 magnetization       0.3955265

 Broyden mixing:
  rms(total) = 0.62753E-02    rms(broyden)= 0.62744E-02
  rms(prec ) = 0.64789E-02
  weight for this iteration     100.00

 eigenvalues of (default mixing * dielectric matrix)
  average eigenvalue GAMMA=   1.8743
 13.7825  9.6272  4.4533  2.3991  2.3991  1.9584  1.1486  1.1486  1.2210  1.2210
  0.9247  0.9247  0.7971  0.7971  0.6327  0.5729  0.5729  0.5663  0.5663  0.3742
  0.3742  0.4279  0.4279  0.4916  0.4916  0.4300

 Free energy of the ion-electron system (eV)
  ---------------------------------------------------
  alpha Z        PSCENC =        10.83448944
  Ewald energy   TEWEN  =     60208.18942089
  -Hartree energ DENC   =    -85389.53010736
  -exchange      EXHF   =         0.00000000
  -V(xc)+E(xc)   XCENC  =       885.60561360
  PAW double counting   =     25904.73646408   -28051.61665494
  entropy T*S    EENTRO =         0.00000000
  eigenvalues    EBANDS =     -1440.15351183
  atomic energy  EATOM  =     27818.71169316
  Solvation  Ediel_sol  =         0.00000000
  ---------------------------------------------------
  free energy    TOTEN  =       -53.22259296 eV

  energy without entropy =      -53.22259296  energy(sigma->0) =      -53.22259296


--------------------------------------------------------------------------------------------------------




--------------------------------------- Iteration      1(  32)  ---------------------------------------


    POTLOK:  cpu time    0.9560: real time    0.9595
    SETDIJ:  cpu time    0.0160: real time    0.0149
     EDDAV:  cpu time   12.3880: real time   12.3895
       DOS:  cpu time    0.0040: real time    0.0006
    CHARGE:  cpu time    0.5560: real time    0.5591
    MIXING:  cpu time    0.1760: real time    0.1735
    --------------------------------------------
      LOOP:  cpu time   14.0960: real time   14.0971

 eigenvalue-minimisations  :   904
 total energy-change (2. order) :-0.5872112E-01  (-0.2718186E-04)
 number of electron     219.9999913 magnetization       0.2601145
 augmentation part      141.0408360 magnetization       0.2588013

 Broyden mixing:
  rms(total) = 0.50413E-02    rms(broyden)= 0.50408E-02
  rms(prec ) = 0.52025E-02
  weight for this iteration     100.00

 eigenvalues of (default mixing * dielectric matrix)
  average eigenvalue GAMMA=   1.8925
[...]
  0.007   0.015   0.002 -10.875   0.012  -0.005  -0.011  -0.002
  0.007   0.001   0.012   0.012 -10.877  -0.005  -0.000  -0.009
  1.289  -0.007   0.016  -0.005  -0.005   6.103   0.005  -0.011
 -0.007   1.266  -0.002  -0.011  -0.000   0.005   6.119   0.003
  0.016  -0.002   1.275  -0.002  -0.009  -0.011   0.003   6.113
 -0.005  -0.011  -0.002   1.287  -0.010   0.005   0.008   0.002
 -0.005  -0.000  -0.009  -0.010   1.289   0.004  -0.001   0.006
 -0.005  -0.001  -0.002  -0.004   0.003   0.002   0.003   0.001
 -0.009  -0.002  -0.004  -0.008   0.005   0.003   0.005   0.002
 -0.013  -0.012   0.003  -0.001   0.005   0.009   0.008  -0.003
 -0.001  -0.005  -0.014  -0.014   0.000  -0.000   0.005   0.010
 -0.006  -0.001   0.008  -0.012  -0.014   0.005  -0.000  -0.006
 -0.014  -0.013   0.004  -0.001   0.005   0.010   0.009  -0.003
 -0.001  -0.005  -0.015  -0.015   0.000  -0.000   0.006   0.010
 -0.007  -0.001   0.009  -0.013  -0.015   0.006  -0.000  -0.007
 total augmentation occupancy for first ion, spin component:           1
  1.943   0.004  -0.010   0.006   0.010  -0.011  -0.002   0.004  -0.002  -0.006   0.015   0.002   0.054  -0.014   0.004  -0.020
  0.004   1.951   0.004   0.003   0.000  -0.002  -0.022  -0.000  -0.002  -0.006  -0.004  -0.002   0.039   0.027  -0.018  -0.019
 -0.010   0.004   1.946  -0.000  -0.000   0.004  -0.000  -0.013   0.001  -0.002  -0.004  -0.001  -0.008   0.044  -0.023   0.005
  0.006   0.003  -0.000   1.947   0.009  -0.002  -0.002   0.001  -0.009  -0.007   0.005   0.009  -0.020   0.037   0.037   0.001
  0.010   0.000  -0.000   0.009   1.940  -0.006  -0.006  -0.002  -0.007  -0.015   0.000  -0.001  -0.034  -0.001   0.031   0.010
 -0.011  -0.002   0.004  -0.002  -0.006   0.010   0.000  -0.002   0.001  -0.001  -0.016  -0.001   0.018  -0.007   0.010  -0.001
 -0.002  -0.022  -0.000  -0.002  -0.006   0.000   0.009   0.002  -0.001  -0.002   0.016  -0.003   0.016   0.013  -0.007  -0.001
  0.004  -0.000  -0.013   0.001  -0.002  -0.002   0.002   0.010   0.000  -0.002  -0.001  -0.000  -0.004   0.021  -0.015   0.000
 -0.002  -0.002   0.001  -0.009  -0.007   0.001  -0.001   0.000   0.011   0.000  -0.022  -0.001  -0.006   0.012   0.012   0.000
 -0.006  -0.006  -0.002  -0.007  -0.015  -0.001  -0.002  -0.002   0.000   0.009   0.024  -0.002  -0.012  -0.002   0.018   0.001
  0.015  -0.004  -0.004   0.005   0.000  -0.016   0.016  -0.001  -0.022   0.024   1.675  -0.112   0.093   0.157   0.170  -0.013
  0.002  -0.002  -0.001   0.009  -0.001  -0.001  -0.003  -0.000  -0.001  -0.002  -0.112   0.012  -0.015  -0.019  -0.019   0.001
  0.054   0.039  -0.008  -0.020  -0.034   0.018   0.016  -0.004  -0.006  -0.012   0.093  -0.015   0.113   0.009  -0.005  -0.007
 -0.014   0.027   0.044   0.037  -0.001  -0.007   0.013   0.021   0.012  -0.002   0.157  -0.019   0.009   0.123  -0.025  -0.001
  0.004  -0.018  -0.023   0.037   0.031   0.010  -0.007  -0.015   0.012   0.018   0.170  -0.019  -0.005  -0.025   0.134  -0.000
 -0.020  -0.019   0.005   0.001   0.010  -0.001  -0.001   0.000   0.000   0.001  -0.013   0.001  -0.007  -0.001  -0.000   0.001
  0.001  -0.009  -0.020  -0.020   0.000   0.000  -0.001  -0.001  -0.000   0.000  -0.020   0.002  -0.001  -0.009  -0.000   0.000
 -0.008   0.001   0.012  -0.019  -0.020  -0.000   0.000   0.001  -0.000  -0.001  -0.021   0.002  -0.000  -0.000  -0.010   0.000
 total augmentation occupancy for first ion, spin component:           2
 -0.000   0.000  -0.000  -0.000  -0.000  -0.000   0.000  -0.000   0.000  -0.000  -0.000   0.000  -0.000  -0.000   0.000   0.000
  0.000  -0.000  -0.000   0.000  -0.000   0.000  -0.000  -0.000  -0.000  -0.000  -0.000   0.000  -0.000   0.000  -0.000   0.000
 -0.000  -0.000   0.000   0.000   0.000  -0.000  -0.000   0.000   0.000   0.000  -0.000   0.000   0.000   0.000  -0.000  -0.000
 -0.000   0.000   0.000  -0.000  -0.000   0.000  -0.000  -0.000  -0.000  -0.000   0.000  -0.000  -0.000  -0.000  -0.000   0.000
 -0.000  -0.000   0.000  -0.000   0.000  -0.000  -0.000   0.000  -0.000   0.000   0.000  -0.000   0.000  -0.000   0.000  -0.000
 -0.000   0.000  -0.000   0.000  -0.000   0.000   0.000   0.000  -0.000   0.000  -0.000   0.000   0.000   0.000  -0.000   0.000
  0.000  -0.000  -0.000  -0.000  -0.000   0.000   0.000  -0.000   0.000  -0.000  -0.000   0.000   0.000  -0.000  -0.000   0.000
 -0.000  -0.000   0.000  -0.000   0.000   0.000  -0.000  -0.000   0.000  -0.000   0.000  -0.000  -0.000  -0.000   0.000   0.000
  0.000  -0.000   0.000  -0.000  -0.000  -0.000   0.000   0.000   0.000   0.000  -0.000   0.000  -0.000   0.000  -0.000   0.000
 -0.000  -0.000   0.000  -0.000   0.000   0.000  -0.000  -0.000   0.000  -0.000  -0.000   0.000  -0.000   0.000  -0.000   0.000
 -0.000  -0.000  -0.000   0.000   0.000  -0.000  -0.000   0.000  -0.000  -0.000  -0.000   0.000  -0.000  -0.000   0.000   0.000
  0.000   0.000   0.000  -0.000  -0.000   0.000   0.000  -0.000   0.000   0.000   0.000  -0.000   0.000   0.000  -0.000  -0.000
 -0.000  -0.000   0.000  -0.000   0.000   0.000   0.000  -0.000  -0.000  -0.000  -0.000   0.000  -0.000   0.000  -0.000   0.000
 -0.000   0.000   0.000  -0.000  -0.000   0.000  -0.000  -0.000   0.000   0.000  -0.000   0.000   0.000   0.000  -0.000  -0.000
  0.000  -0.000  -0.000  -0.000   0.000  -0.000  -0.000   0.000  -0.000  -0.000   0.000  -0.000  -0.000  -0.000   0.000  -0.000
  0.000   0.000  -0.000   0.000  -0.000   0.000   0.000   0.000   0.000   0.000   0.000  -0.000   0.000  -0.000  -0.000  -0.000
  0.000  -0.000  -0.000   0.000   0.000  -0.000   0.000   0.000  -0.000  -0.000   0.000  -0.000  -0.000  -0.000   0.000   0.000
 -0.000   0.000   0.000   0.000  -0.000   0.000   0.000  -0.000   0.000   0.000  -0.000   0.000   0.000   0.000  -0.000   0.000


------------------------ aborting loop because EDIFF is reached ----------------------------------------


 


 total charge     
 
# of ion       s       p       d       tot
------------------------------------------
    1        0.465   0.197   9.261   9.922
    2        0.463   0.142   9.292   9.896
    3        0.465   0.260   9.228   9.953
    4        0.456   0.260   9.220   9.936
    5        0.454   0.312   9.191   9.957
    6        0.453   0.305   9.203   9.960
    7        0.466   0.196   9.261   9.923
    8        0.462   0.153   9.281   9.897
    9        0.450   0.150   9.297   9.897
   10        0.451   0.237   9.237   9.924
   11        0.453   0.150   9.295   9.898
   12        0.464   0.255   9.229   9.948
   13        0.444   0.222   9.243   9.910
   14        0.461   0.150   9.282   9.894
   15        0.439   0.310   9.206   9.955
   16        0.467   0.243   9.238   9.948
   17        0.473   0.371   9.241  10.084
   18        0.469   0.175   9.267   9.911
   19        0.458   0.270   9.218   9.946
   20        0.445   0.226   9.242   9.914
--------------------------------------------------
tot          9.158   4.583 184.931 198.673
 


 magnetization (x)
 
# of ion       s       p       d       tot
------------------------------------------
    1       -0.000   0.000  -0.000  -0.000
    2       -0.000   0.000  -0.000  -0.000
    3        0.000  -0.000   0.000   0.000
    4        0.000   0.000  -0.000   0.000
    5        0.000   0.000  -0.000   0.000
    6        0.000   0.000   0.000   0.000
    7        0.000   0.000  -0.000   0.000
    8       -0.000   0.000  -0.000  -0.000
    9        0.000   0.000  -0.000   0.000
   10       -0.000  -0.000  -0.000  -0.000
   11        0.000  -0.000  -0.000   0.000
   12       -0.000  -0.000   0.000   0.000
   13       -0.000  -0.000   0.000  -0.000
   14       -0.000   0.000  -0.000  -0.000
   15       -0.000  -0.000   0.000  -0.000
   16       -0.000   0.000  -0.000  -0.000
   17       -0.000  -0.000  -0.000  -0.000
   18        0.000  -0.000  -0.000  -0.000
   19        0.000   0.000  -0.000  -0.000
   20       -0.000  -0.000  -0.000  -0.000
--------------------------------------------------
tot         -0.000  -0.000  -0.000  -0.000
 
    CHARGE:  cpu time    0.5720: real time    0.5693
    FORLOC:  cpu time    0.0360: real time    0.0391
    FORNL :  cpu time    2.8200: real time    2.8175
    STRESS:  cpu time    7.4160: real time    7.4132
    FORCOR:  cpu time    0.9040: real time    0.9064
    FORHAR:  cpu time    0.1400: real time    0.1396
    MIXING:  cpu time    0.0320: real time    0.0298
    OFIELD:  cpu time    0.0000: real time    0.0001

  FORCE on cell =-STRESS in cart. coord.  units (eV):
  Direction    XX          YY          ZZ          XY          YZ          ZX
  --------------------------------------------------------------------------------------
  Alpha Z    10.83449    10.83449    10.83449
  Ewald   22497.77848 19426.55088 18393.79634 -2694.15479  -868.28588  1603.80719
  Hartree 30658.90960 27904.92970 26948.21658 -2393.72182  -821.45641  1418.98613
  E(xc)   -1283.44942 -1283.85386 -1283.90283    -0.42716     0.01906     0.27803
  Local  -55087.39792-49275.11110-47289.49379  5076.01086  1686.81646 -3015.68128
  n-local  -474.11577  -474.07396  -473.87425     0.32662     0.33081    -0.26925
  augment  1873.71678  1879.49140  1881.34758     5.31477     1.36976    -3.18457
  Kinetic  1798.05058  1805.71817  1807.42041     6.58029     1.08152    -4.00687
  Fock        0.00000     0.00000     0.00000     0.00000     0.00000     0.00000
  -------------------------------------------------------------------------------------
  Total      -5.67318    -5.51429    -5.65545    -0.07124    -0.12468    -0.07062
  in kB      -0.33665    -0.32722    -0.33559    -0.00423    -0.00740    -0.00419
  external pressure =       -0.33 kB  Pullay stress =        0.00 kB


 VOLUME and BASIS-vectors are now :
 -----------------------------------------------------------------------------
  energy-cutoff  :      295.45
  volume of cell :    27000.00
      direct lattice vectors                 reciprocal lattice vectors
    30.000000000  0.000000000  0.000000000     0.033333333  0.000000000  0.000000000
     0.000000000 30.000000000  0.000000000     0.000000000  0.033333333  0.000000000
     0.000000000  0.000000000 30.000000000     0.000000000  0.000000000  0.033333333

  length of vectors
    30.000000000 30.000000000 30.000000000     0.033333333  0.033333333  0.033333333


 FORCES acting on ions
    electron-ion (+dipol)            ewald-force                    non-local-force                 convergence-correction
 -----------------------------------------------------------------------------------------------
   0.128E+04 0.773E+03 0.893E+03   -.127E+04 -.771E+03 -.888E+03   -.515E+01 -.200E+01 -.497E+01   -.211E-01 -.824E-02 -.174E-01
   0.169E+04 0.126E+03 -.209E+03   -.168E+04 -.126E+03 0.209E+03   -.102E+02 0.488E+00 0.340E+00   0.571E-02 -.433E-01 0.287E-01
   0.198E+03 0.264E+03 0.161E+04   -.198E+03 -.263E+03 -.161E+04   0.272E+00 -.746E+00 -.307E+01   -.213E-01 -.224E-03 -.105E-01
   0.373E+03 0.150E+04 0.627E+03   -.373E+03 -.150E+04 -.627E+03   -.147E+00 -.242E+01 -.607E+00   -.155E-01 0.182E-01 -.615E-02
   0.110E+04 -.623E+03 0.342E+03   -.109E+04 0.622E+03 -.342E+03   -.112E+01 0.517E+00 -.166E+00   0.701E-01 -.248E-01 0.355E-02
   0.962E+03 0.972E+03 -.739E+03   -.960E+03 -.972E+03 0.738E+03   -.204E+01 -.173E+00 0.210E+00   0.485E-02 0.951E-02 0.151E-02
   0.113E+04 -.642E+03 -.116E+04   -.112E+04 0.638E+03 0.116E+04   -.446E+01 0.414E+01 0.421E+01   -.153E-01 0.121E-01 0.160E-01
   -.777E+03 0.153E+04 0.304E+03   0.773E+03 -.153E+04 -.304E+03   0.426E+01 -.872E+01 -.578E-02   -.103E-02 0.108E-01 0.132E-01
   0.517E+03 -.791E+03 0.143E+04   -.512E+03 0.789E+03 -.142E+04   -.509E+01 0.249E+01 -.873E+01   0.275E-01 0.138E-01 -.222E-01
   -.812E+02 0.141E+04 -.978E+03   0.792E+02 -.141E+04 0.974E+03   0.199E+01 -.512E+01 0.334E+01   0.287E-01 -.851E-02 0.146E-01
   0.412E+03 -.165E+04 0.214E+03   -.408E+03 0.164E+04 -.215E+03   -.421E+01 0.928E+01 0.105E+01   0.131E-01 0.166E-01 -.150E-01
   0.294E+02 -.143E+04 -.813E+03   -.300E+02 0.143E+04 0.812E+03   0.677E+00 0.269E+01 0.170E+01   -.194E-01 0.115E-01 0.443E-02
   -.972E+03 0.507E+03 0.134E+04   0.968E+03 -.507E+03 -.134E+04   0.322E+01 -.340E+00 -.349E+01   -.735E-02 -.217E-01 -.307E-01
   -.892E+03 0.302E+03 -.147E+04   0.887E+03 -.299E+03 0.146E+04   0.489E+01 -.347E+01 0.779E+01   -.162E-01 0.817E-02 -.212E-01
   -.676E+03 -.111E+04 0.825E+03   0.675E+03 0.111E+04 -.825E+03   0.760E+00 0.168E+00 -.160E+00   -.128E-02 -.225E-01 0.800E-02
   -.158E+04 0.556E+03 -.281E+03   0.158E+04 -.555E+03 0.281E+03   0.426E+01 -.355E+00 -.153E-01   0.544E-01 -.224E-01 0.119E-01
   -.247E+03 0.545E+02 -.680E+01   0.245E+03 -.537E+02 0.658E+01   0.209E+01 -.794E+00 0.195E+00   0.345E-01 0.299E-02 0.781E-02
   -.155E+04 -.665E+03 0.561E+03   0.154E+04 0.663E+03 -.559E+03   0.822E+01 0.230E+01 -.208E+01   -.682E-02 -.313E-01 -.108E-01
   0.209E+03 -.844E+02 -.165E+04   -.209E+03 0.846E+02 0.164E+04   0.650E-01 -.270E+00 0.216E+01   -.832E-02 0.211E-01 0.317E-01
   -.111E+04 -.101E+04 -.848E+03   0.111E+04 0.101E+04 0.846E+03   0.331E+01 0.293E+01 0.109E+01   -.738E-02 0.109E-01 0.495E-02
 -----------------------------------------------------------------------------------------------
   -.175E+01 -.648E+00 0.115E+01   -.205E-11 0.909E-12 -.171E-11   0.154E+01 0.590E+00 -.121E+01   0.977E-01 -.474E-01 0.124E-01
 
 
 POSITION                                       TOTAL-FORCE (eV/Angst)
 -----------------------------------------------------------------------------------
      6.82274      8.06878      7.90848        -0.006302     -0.026051      0.007033
      5.56121      9.04655      9.72993         0.011899      0.019742     -0.009173
      8.82894      9.02687      6.94494         0.005848     -0.003790      0.022837
      8.90935      6.98475      8.36805        -0.009409     -0.023918     -0.012903
      7.57202     10.26926      8.74300        -0.020747      0.043188     -0.012565
      7.68300      8.08370     10.23451        -0.036451      0.002252     -0.017936
      7.05232     10.29980     11.15800        -0.004292     -0.013875      0.012214
     11.11646      6.21818      8.77439         0.023428     -0.007646     -0.000581
      8.14250     11.28200      6.49698        -0.018897     -0.020836     -0.012384
      9.86441      7.12395     10.75807        -0.016973     -0.030252      0.004056
      8.31199     12.67426      8.45793        -0.013231      0.021802      0.033723
      9.06566     11.42526     10.37785         0.005604     -0.033278     -0.010448
     11.03324      8.23393      7.43967         0.054752      0.012252     -0.018965
     11.35705      8.57896     12.19287         0.011613     -0.014374     -0.003736
      9.97668     11.05092      8.00393         0.002424      0.011800     -0.013775
     11.98770      8.17884      9.88542        -0.022785     -0.001163      0.002561
      9.81342      9.09758      9.35823        -0.021133      0.044231     -0.016532
     12.10247     10.18313      8.48640         0.011518      0.028127      0.005038
      9.16259      9.36320     11.75811         0.014746     -0.017903      0.034613
     11.25250     10.51561     10.75482         0.028388      0.009694      0.006923
 -----------------------------------------------------------------------------------
    total drift:                               -0.115936     -0.104684     -0.042875


--------------------------------------------------------------------------------------------------------



  FREE ENERGIE OF THE ION-ELECTRON SYSTEM (eV)
  ---------------------------------------------------
  free  energy   TOTEN  =       -53.93657501 eV

  energy  without entropy=      -53.93657501  energy(sigma->0) =      -53.93657501
 
 d Force = 0.4912735E-02[ 0.216E-02, 0.766E-02]  d Energy = 0.4895595E-02 0.171E-04
 d Force =-0.2499185E+02[-0.249E+02,-0.251E+02]  d Ewald  =-0.2499150E+02-0.351E-03


--------------------------------------------------------------------------------------------------------


    POTLOK:  cpu time    0.9560: real time    0.9583


--------------------------------------------------------------------------------------------------------


 Conjugate gradient step on ions:
 trial-energy change:   -0.004896  1 .order   -0.004913   -0.007664   -0.002162
  (g-gl).g = 0.202E-02      g.g   = 0.248E-02  gl.gl    = 0.551E-02
 g(Force)  = 0.248E-02   g(Stress)= 0.000E+00 ortho     = 0.284E-03
 gamma     =   0.36577
 trial     =   2.96797
 opt step  =   4.13392  (harmonic =   4.13392) maximal distance =0.01520494
 next E    =   -53.937017   (d E  =  -0.00534)


--------------------------------------------------------------------------------------------------------


  
 reached required accuracy - stopping structural energy minimisation
     LOOP+:  cpu time  117.6040: real time  117.6745
    4ORBIT:  cpu time    0.0000: real time    0.0000
 


 total charge     
 
# of ion       s       p       d       tot
------------------------------------------
    1        0.465   0.197   9.261   9.922
    2        0.463   0.142   9.292   9.896
    3        0.465   0.260   9.228   9.953
    4        0.456   0.260   9.220   9.936
    5        0.454   0.312   9.191   9.957
    6        0.453   0.305   9.203   9.960
    7        0.466   0.196   9.261   9.923
    8        0.462   0.153   9.281   9.897
    9        0.450   0.150   9.297   9.897
   10        0.451   0.237   9.237   9.924
   11        0.453   0.150   9.295   9.898
   12        0.464   0.255   9.229   9.948
   13        0.444   0.222   9.243   9.910
   14        0.461   0.150   9.282   9.894
   15        0.439   0.310   9.206   9.955
   16        0.467   0.243   9.238   9.948
   17        0.473   0.371   9.241  10.084
   18        0.469   0.175   9.267   9.911
   19        0.458   0.270   9.218   9.946
   20        0.445   0.226   9.242   9.914
--------------------------------------------------
tot          9.158   4.583 184.931 198.673
 


 magnetization (x)
 
# of ion       s       p       d       tot
------------------------------------------
    1       -0.000   0.000  -0.000  -0.000
    2       -0.000   0.000  -0.000  -0.000
    3        0.000  -0.000   0.000   0.000
    4        0.000   0.000  -0.000   0.000
    5        0.000   0.000  -0.000   0.000
    6        0.000   0.000   0.000   0.000
    7        0.000   0.000  -0.000   0.000
    8       -0.000   0.000  -0.000  -0.000
    9        0.000   0.000  -0.000   0.000
   10       -0.000  -0.000  -0.000  -0.000
   11        0.000  -0.000  -0.000   0.000
   12       -0.000  -0.000   0.000   0.000
   13       -0.000  -0.000   0.000  -0.000
   14       -0.000   0.000  -0.000  -0.000
   15       -0.000  -0.000   0.000  -0.000
   16       -0.000   0.000  -0.000  -0.000
   17       -0.000  -0.000  -0.000  -0.000
   18        0.000  -0.000  -0.000  -0.000
   19        0.000   0.000  -0.000  -0.000
   20       -0.000  -0.000  -0.000  -0.000
--------------------------------------------------
tot         -0.000  -0.000  -0.000  -0.000
 

 total amount of memory used by VASP MPI-rank0   114894. kBytes
=======================================================================

   base      :      30000. kBytes
   nonl-proj :       6562. kBytes
   fftplans  :      16829. kBytes
   grid      :      42892. kBytes
   one-center:         31. kBytes
   wavefun   :      18580. kBytes
 
  
  
 General timing and accounting informations for this job:
 ========================================================
  
                  Total CPU time used (sec):     2677.248
                            User time (sec):     2666.812
                          System time (sec):       10.436
                         Elapsed time (sec):     2679.653
  
                   Maximum memory used (kb):       46168.
                   Average memory used (kb):           0.
  
                          Minor page faults:        20195
                          Major page faults:           29
                 Voluntary context switches:         1403
