 vasp.5.4.1 05Feb16 (build Apr 11 2020 03:28:46) gamma-only                     
  
 executed on           IFC91_ompi date 2022.05.23  10:06:13
 running on   24 total cores
 distrk:  each k-point on   24 cores,    1 groups
 distr:  one band on NCORES_PER_BAND=   6 cores,    4 groups


--------------------------------------------------------------------------------------------------------


 INCAR:
 POTCAR:    PAW_PBE Cu 22Jun2005                  
 POTCAR:    PAW_PBE Cu 22Jun2005                  
   VRHFIN =Cu: d10 p1                                                           
   LEXCH  = PE                                                                  
   EATOM  =  1390.9808 eV,  102.2342 Ry                                         
                                                                                
   TITEL  = PAW_PBE Cu 22Jun2005                                                
   LULTRA =        F    use ultrasoft PP ?                                      
   IUNSCR =        1    unscreen: 0-lin 1-nonlin 2-no                           
   RPACOR =    2.000    partial core radius                                     
   POMASS =   63.546; ZVAL   =   11.000    mass and valenz                      
   RCORE  =    2.300    outmost cutoff radius                                   
   RWIGS  =    2.200; RWIGS  =    1.164    wigner-seitz radius (au A)           
   ENMAX  =  295.446; ENMIN  =  221.585 eV                                      
   ICORE  =        3    local potential                                         
   LCOR   =        T    correct aug charges                                     
   LPAW   =        T    paw PP                                                  
   EAUG   =  586.980                                                            
   DEXC   =    0.000                                                            
   RMAX   =    2.344    core radius for proj-oper                               
   RAUG   =    1.300    factor for augmentation sphere                          
   RDEP   =    2.302    radius for radial grids                                 
   RDEPT  =    1.771    core radius for aug-charge                              
                                                                                
   Atomic configuration                                                         
    9 entries                                                                   
     n  l   j            E        occ.                                          
     1  0  0.50     -8850.2468   2.0000                                         
     2  0  0.50     -1062.3498   2.0000                                         
     2  1  1.50      -916.8226   6.0000                                         
     3  0  0.50      -114.6929   2.0000                                         
     3  1  1.50       -72.1325   6.0000                                         
     3  2  2.50        -5.0394  10.0000                                         
     4  0  0.50        -4.6097   1.0000                                         
     4  1  0.50        -4.0817   0.0000                                         
     4  3  2.50        -1.3606   0.0000                                         
   Description                                                                  
     l       E           TYP  RCUT    TYP  RCUT                                 
     2     -5.0393973     23  2.200                                             
     2     10.8846608     23  2.200                                             
     0     -4.6097109     23  2.200                                             
     0      8.2520465     23  2.200                                             
     1     -2.7211652     23  2.200                                             
     1     21.7055443     23  2.200                                             
     3      2.7211652     23  2.300                                             
  local pseudopotential read in
  partial core-charges read in
  partial kinetic energy density read in
  atomic valenz-charges read in
  non local Contribution for L=           2  read in
    real space projection operators read in
  non local Contribution for L=           2  read in
    real space projection operators read in
  non local Contribution for L=           0  read in
    real space projection operators read in
  non local Contribution for L=           0  read in
    real space projection operators read in
  non local Contribution for L=           1  read in
    real space projection operators read in
  non local Contribution for L=           1  read in
    real space projection operators read in
    PAW grid and wavefunctions read in
 
   number of l-projection  operators is LMAX  =           6
   number of lm-projection operators is LMMAX =          18
 

 ----------------------------------------------------------------------------- 
|                                                                             |
|  ADVICE TO THIS USER RUNNING 'VASP/VAMP'   (HEAR YOUR MASTER'S VOICE ...):  |
|                                                                             |
|      You have a (more or less) 'large supercell' and for larger cells       |
|      it might be more efficient to use real space projection opertators     |
|      So try LREAL= Auto  in the INCAR   file.                               |
|      Mind: At the moment your POTCAR file does not contain real space       |
|       projectors, and has to be modified,  BUT if you                       |
|      want to do an extremely  accurate calculation you might also keep the  |
|      reciprocal projection scheme          (i.e. LREAL=.FALSE.)             |
|                                                                             |
 ----------------------------------------------------------------------------- 

  PAW_PBE Cu 22Jun2005                  :
 energy of atom  1       EATOM=-1390.9808
 kinetic energy error for atom=    0.0452 (will be added to EATOM!!)
 
 
 POSCAR: Unknown Structure <s> Cu </s>           
  positions in direct lattice
  velocities in cartesian coordinates
 exchange correlation table for  LEXCH =        8
   RHO(1)=    0.500       N(1)  =     2000
   RHO(2)=  100.500       N(2)  =     4000
 


--------------------------------------------------------------------------------------------------------


 ion  position               nearest neighbor table
   1  0.649  0.478  0.582-   2 2.40   7 2.40   4 2.48   8 2.50
   2  0.605  0.480  0.481-   1 2.40   8 2.42   3 2.44   5 2.44   4 2.49   9 2.49  11 2.62
   3  0.569  0.484  0.375-  10 2.43   5 2.44   9 2.44  16 2.44   2 2.44
   4  0.608  0.577  0.542-  15 2.43   5 2.45   1 2.48   7 2.48   2 2.49   6 2.65
   5  0.552  0.571  0.444-   6 2.39   3 2.44  16 2.44   2 2.44  18 2.44   4 2.45  15 2.58
   6  0.548  0.670  0.490-  15 2.38   5 2.39  18 2.54   4 2.65
   7  0.544  0.505  0.604-   1 2.40  11 2.44  12 2.47  15 2.47   4 2.48   8 2.51  17 2.59
   8  0.567  0.404  0.553-   2 2.42  11 2.50   1 2.50  13 2.51  12 2.51   7 2.51   9 2.56
   9  0.534  0.400  0.440-   3 2.44  10 2.44  11 2.46  13 2.46   2 2.49  14 2.53   8 2.56
  10  0.482  0.422  0.342-  16 2.43   3 2.43   9 2.44  14 2.47
  11  0.489  0.476  0.510-   7 2.44  19 2.45   9 2.46  14 2.48  17 2.49   8 2.50  12 2.60  13 2.60
                             2 2.62  20 2.62  15 2.65  16 2.66
  12  0.470  0.419  0.614-  13 2.41  17 2.45  20 2.45   7 2.47   8 2.51  11 2.60
  13  0.465  0.359  0.520-  12 2.41  20 2.45   9 2.46  14 2.48   8 2.51  11 2.60
  14  0.419  0.423  0.437-  16 2.44  10 2.47  20 2.47  11 2.48  13 2.48   9 2.53  19 2.57
  15  0.497  0.592  0.547-   6 2.38  17 2.40  18 2.41  21 2.42   4 2.43   7 2.47   5 2.58  11 2.65

  16  0.465  0.518  0.397-  10 2.43   3 2.44   5 2.44  14 2.44  19 2.47  18 2.52  11 2.66
  17  0.426  0.522  0.595-  15 2.40  20 2.45  12 2.45  21 2.48  11 2.49  19 2.52   7 2.59
  18  0.451  0.620  0.451-  15 2.41   5 2.44  19 2.48  21 2.50  16 2.52   6 2.54
  19  0.392  0.528  0.484-  21 2.41  11 2.45  20 2.47  16 2.47  18 2.48  17 2.52  14 2.57
  20  0.382  0.432  0.544-  17 2.45  13 2.45  12 2.45  14 2.47  19 2.47  11 2.62
  21  0.389  0.619  0.548-  19 2.41  15 2.42  17 2.48  18 2.50
 

IMPORTANT INFORMATION: All symmetrisations will be switched off!
NOSYMM: (Re-)initialisation of all symmetry stuff for point group C_1.

 
 
 KPOINTS: Gamma only                              
  k-points in reciprocal lattice
Space group operators:
 irot       det(A)        alpha          n_x          n_y          n_z        tau_x        tau_y        tau_z
    1     1.000000     0.000000     1.000000     0.000000     0.000000     0.000000     0.000000     0.000000


--------------------------------------------------------------------------------------------------------




 Dimension of arrays:
   k-points           NKPTS =      1   k-points in BZ     NKDIM =      1   number of bands    NBANDS=    172
   number of dos      NEDOS =    301   number of ions     NIONS =     21
   non local maximal  LDIM  =      6   non local SUM 2l+1 LMDIM =     18
   total plane-waves  NPLWV = 884736
   max r-space proj   IRMAX =      1   max aug-charges    IRDMAX=   2697
   dimension x,y,z NGX =    96 NGY =   96 NGZ =   96
   dimension x,y,z NGXF=   192 NGYF=  192 NGZF=  192
   support grid    NGXF=   192 NGYF=  192 NGZF=  192
   ions per type =              21
 NGX,Y,Z   is equivalent  to a cutoff of   7.34,  7.34,  7.34 a.u.
 NGXF,Y,Z  is equivalent  to a cutoff of  14.69, 14.69, 14.69 a.u.


 I would recommend the setting:
   dimension x,y,z NGX =    91 NGY =   91 NGZ =   91
 SYSTEM =  unknown system                          
 POSCAR =  Unknown Structure <s> Cu </s>           

 Startparameter for this run:
   NWRITE =      2    write-flag & timer
   PREC   = normal    normal or accurate (medium, high low for compatibility)
   ISTART =      0    job   : 0-new  1-cont  2-samecut
   ICHARG =      2    charge: 1-file 2-atom 10-const
   ISPIN  =      2    spin polarized calculation?
   LNONCOLLINEAR =      F non collinear calculations
   LSORBIT =      F    spin-orbit coupling
   INIWAV =      1    electr: 0-lowe 1-rand  2-diag
   LASPH  =      F    aspherical Exc in radial PAW
   METAGGA=      F    non-selfconsistent MetaGGA calc.

 Electronic Relaxation 1
   ENCUT  =  295.4 eV  21.71 Ry    4.66 a.u.  30.45 30.45 30.45*2*pi/ulx,y,z
   ENINI  =  295.4     initial cutoff
   ENAUG  =  587.0 eV  augmentation charge cutoff
   NELM   =     60;   NELMIN=  2; NELMDL=  0     # of ELM steps 
   EDIFF  = 0.1E-05   stopping-criterion for ELM
   LREAL  =      F    real-space projection
   NLSPLINE    = F    spline interpolate recip. space projectors
   LCOMPAT=      F    compatible to vasp.4.4
   GGA_COMPAT  = T    GGA compatible to vasp.4.4-vasp.4.6
   LMAXPAW     = -100 max onsite density
   LMAXMIX     =    2 max onsite mixed and CHGCAR
   VOSKOWN=      0    Vosko Wilk Nusair interpolation
   ROPT   =    0.00000
 Ionic relaxation
   EDIFFG = -.3E-01   stopping-criterion for IOM
   NSW    =   1000    number of steps for IOM
   NBLOCK =      1;   KBLOCK =   1000    inner block; outer block 
   IBRION =      2    ionic relax: 0-MD 1-quasi-New 2-CG
   NFREE  =      1    steps in history (QN), initial steepest desc. (CG)
   ISIF   =      2    stress and relaxation
   IWAVPR =     11    prediction:  0-non 1-charg 2-wave 3-comb
   ISYM   =      0    0-nonsym 1-usesym 2-fastsym
   LCORR  =      T    Harris-Foulkes like correction to forces

   POTIM  = 0.5000    time-step for ionic-motion
   TEIN   =    0.0    initial temperature
   TEBEG  =    0.0;   TEEND  =   0.0 temperature during run
   SMASS  =  -3.00    Nose mass-parameter (am)
   estimated Nose-frequenzy (Omega)   =  0.10E-29 period in steps =****** mass=  -0.108E-25a.u.
   SCALEE = 1.0000    scale energy and forces
   NPACO  =    256;   APACO  = 16.0  distance and # of slots for P.C.
   PSTRESS=    0.0 pullay stress

  Mass of Ions in am
   POMASS =  63.55
  Ionic Valenz
   ZVAL   =  11.00
  Atomic Wigner-Seitz radii
   RWIGS  =  -1.00
  virtual crystal weights 
   VCA    =   1.00
   NELECT =     231.0000    total number of electrons
   NUPDOWN=      -1.0000    fix difference up-down

 DOS related values:
   EMIN   =  10.00;   EMAX   =-10.00  energy-range for DOS
   EFERMI =   0.00
   ISMEAR =     0;   SIGMA  =   0.00  broadening in eV -4-tet -1-fermi 0-gaus

 Electronic relaxation 2 (details)
   IALGO  =     68    algorithm
   LDIAG  =      T    sub-space diagonalisation (order eigenvalues)
   LSUBROT=      F    optimize rotation matrix (better conditioning)
   TURBO    =      0    0=normal 1=particle mesh
   IRESTART =      0    0=no restart 2=restart with 2 vectors
   NREBOOT  =      0    no. of reboots
   NMIN     =      0    reboot dimension
   EREF     =   0.00    reference energy to select bands
   IMIX   =      4    mixing-type and parameters
     AMIX     =   0.20;   BMIX     =  0.00
     AMIX_MAG =   0.80;   BMIX_MAG =  0.00
     AMIN     =   0.10
     WC   =   100.;   INIMIX=   1;  MIXPRE=   1;  MAXMIX= -45

 Intra band minimization:
   WEIMIN = 0.0010     energy-eigenvalue tresh-hold
   EBREAK =  0.15E-08  absolut break condition
   DEPER  =   0.30     relativ break condition  

   TIME   =   0.40     timestep for ELM

  volume/ion in A,a.u.               =     488.56      3296.99
  Fermi-wavevector in a.u.,A,eV,Ry     =   0.462273  0.873570  2.907519  0.213697
  Thomas-Fermi vector in A             =   1.449784
 
 Write flags
   LWAVE  =      F    write WAVECAR
   LCHARG =      F    write CHGCAR
   LVTOT  =      F    write LOCPOT, total local potential
   LVHAR  =      F    write LOCPOT, Hartree potential only
   LELF   =      F    write electronic localiz. function (ELF)
   LORBIT =     11    0 simple, 1 ext, 2 COOP (PROOUT)


 Dipole corrections
   LMONO  =      F    monopole corrections only (constant potential shift)
   LDIPOL =      F    correct potential (dipole corrections)
   IDIPOL =      0    1-x, 2-y, 3-z, 4-all directions 
   EPSILON=  1.0000000 bulk dielectric constant

 Exchange correlation treatment:
   GGA     =    PE    GGA type
   LEXCH   =     8    internal setting for exchange type
   VOSKOWN=      0    Vosko Wilk Nusair interpolation
   LHFCALC =     F    Hartree Fock is set to
   LHFONE  =     F    Hartree Fock one center treatment
   AEXX    =    0.0000 exact exchange contribution

 Linear response parameters
   LEPSILON=     F    determine dielectric tensor
   LRPA    =     F    only Hartree local field effects (RPA)
   LNABLA  =     F    use nabla operator in PAW spheres
   LVEL    =     F    velocity operator in full k-point grid
   LINTERFAST=   F  fast interpolation
   KINTER  =     0    interpolate to denser k-point grid
   CSHIFT  =0.1000    complex shift for real part using Kramers Kronig
   OMEGAMAX=  -1.0    maximum frequency
   DEG_THRESHOLD= 0.2000000E-02 threshold for treating states as degnerate
   RTIME   =    0.100 relaxation time in fs

 Orbital magnetization related:
   ORBITALMAG=     F  switch on orbital magnetization
   LCHIMAG   =     F  perturbation theory with respect to B field
   DQ        =  0.001000  dq finite difference perturbation B field



--------------------------------------------------------------------------------------------------------


 conjugate gradient relaxation of ions
 charge density and potential will be updated during run
 spin polarized calculation
 RMM-DIIS sequential band-by-band and
  variant of blocked Davidson during initial phase
 perform sub-space diagonalisation
    before iterative eigenvector-optimisation
 modified Broyden-mixing scheme, WC =      100.0
 initial mixing is a Kerker type mixing with AMIX =  0.2000 and BMIX =      0.0001
 Hartree-type preconditioning will be used
 using additional bands           56
 reciprocal scheme for non local part
 use partial core corrections
 calculate Harris-corrections to forces 
   (improved forces if not selfconsistent)
 use gradient corrections 
 use of overlap-Matrix (Vanderbilt PP)
 Gauss-broadening in eV      SIGMA  =   0.00


--------------------------------------------------------------------------------------------------------


  energy-cutoff  :      295.45
  volume of cell :    10259.82
      direct lattice vectors                 reciprocal lattice vectors
    21.729345206  0.000000000  0.000000000     0.046020715  0.000000000  0.000000000
     0.000000000 21.729345206  0.000000000     0.000000000  0.046020715  0.000000000
     0.000000000  0.000000000 21.729345206     0.000000000  0.000000000  0.046020715

  length of vectors
    21.729345206 21.729345206 21.729345206     0.046020715  0.046020715  0.046020715


 
 k-points in units of 2pi/SCALE and weight: Gamma only                              
   0.00000000  0.00000000  0.00000000       1.000
 
 k-points in reciprocal lattice and weights: Gamma only                              
   0.00000000  0.00000000  0.00000000       1.000
 
 position of ions in fractional coordinates (direct lattice) 
   0.64902004  0.47844122  0.58234839
   0.60533981  0.47952671  0.48106722
   0.56914391  0.48447010  0.37495467
   0.60759711  0.57659024  0.54155876
   0.55163652  0.57102378  0.44395917
   0.54845369  0.67043510  0.49049209
   0.54369334  0.50494436  0.60355790
   0.56651887  0.40352636  0.55286462
   0.53354294  0.40014819  0.43963625
   0.48211433  0.42223140  0.34249269
   0.48850936  0.47638619  0.51012398
   0.46955714  0.41947728  0.61361282
   0.46507557  0.35949107  0.52016758
   0.41930416  0.42294781  0.43701510
   0.49686050  0.59203782  0.54738828
   0.46453710  0.51797793  0.39734048
   0.42609551  0.52171164  0.59499036
   0.45059823  0.61986092  0.45070216
   0.39192344  0.52809629  0.48423402
   0.38170068  0.43189531  0.54375234
   0.38877775  0.61878028  0.54774111
 
 position of ions in cartesian coordinates  (Angst):
  14.10278042 10.39621436 12.65404925
  13.15363767 10.41980148 10.45327571
  12.36712447 10.52721813  8.14751945
  13.20268742 12.52892834 11.76771715
  11.98670034 12.40797283  9.64694213
  11.91753965 14.56811570 10.65807188
  11.81410037 10.97211032 13.11491788
  12.31008404  8.76836349 12.01338627
  11.59353869  8.69495808  9.55300788
  10.47602864  9.17481195  7.44214186
  10.61498846 10.35155996 11.08466003
  10.20316915  9.11496669 13.33340483
  10.10578757  7.81150545 11.30290100
   9.11120482  9.19037903  9.49605206
  10.79645339 12.86459424 11.89438896
  10.09408711 11.25532121  8.63394854
   9.25877647 11.33645234 12.92875095
   9.79120454 13.46917185  9.79346283
   8.51623980 11.47518658 10.52208813
   8.29410573  9.38480231 11.81538222
   8.44788591 13.44569033 11.90205566
 


--------------------------------------------------------------------------------------------------------


 use parallel FFT for wavefunctions z direction half grid
 k-point  1 :   0.0000 0.0000 0.0000  plane waves:   59133

 maximum and minimum number of plane-waves per node :      9864     9849

 maximum number of plane-waves:     59133
 maximum index in each direction: 
   IXMAX=   30   IYMAX=   30   IZMAX=   30
   IXMIN=  -30   IYMIN=  -30   IZMIN=    0

 WARNING: aliasing errors must be expected set NGX to 122 to avoid them
 WARNING: aliasing errors must be expected set NGY to 122 to avoid them
 WARNING: aliasing errors must be expected set NGZ to 122 to avoid them
 aliasing errors are usually negligible using standard VASP settings
 and one can safely disregard these warnings

 parallel 3D FFT for wavefunctions:
    minimum data exchange during FFTs selected (reduces bandwidth)
 parallel 3D FFT for charge:
    minimum data exchange during FFTs selected (reduces bandwidth)


 total amount of memory used by VASP on root node    94806. kBytes
========================================================================

   base      :      30000. kBytes
   nonl-proj :       4728. kBytes
   fftplans  :      13160. kBytes
   grid      :      33251. kBytes
   one-center:         62. kBytes
   wavefun   :      13605. kBytes
 
     INWAV:  cpu time    0.0000: real time    0.0000
 Broyden mixing: mesh for mixing (old mesh)
   NGX = 61   NGY = 61   NGZ = 61
  (NGX  =192   NGY  =192   NGZ  =192)
  gives a total of 226981 points

 initial charge density was supplied:
 charge density of overlapping atoms calculated
 number of electron     231.0000000 magnetization      63.0000000
 keeping initial charge density in first step


--------------------------------------------------------------------------------------------------------


 Maximum index for augmentation-charges          217 (set IRDMAX)


--------------------------------------------------------------------------------------------------------


 First call to EWALD:  gamma=   0.082
 Maximum number of real-space cells 3x 3x 3
 Maximum number of reciprocal cells 3x 3x 3

 FEWALD executed in parallel
    FEWALD:  cpu time    0.0020: real time    0.0020


----------------------------------------- Iteration    1(   1)  ---------------------------------------


    POTLOK:  cpu time    0.4988: real time    0.4995
    SETDIJ:  cpu time    0.0106: real time    0.0109
     EDDAV:  cpu time    4.3985: real time    4.4167
       DOS:  cpu time    0.0001: real time    0.0002
    --------------------------------------------
      LOOP:  cpu time    4.9113: real time    4.9452

 eigenvalue-minimisations  :   704
 total energy-change (2. order) : 0.1485091E+04  (-0.4549735E+04)
 number of electron     231.0000000 magnetization      63.0000000
 augmentation part      231.0000000 magnetization      63.0000000

 Free energy of the ion-electron system (eV)
  ---------------------------------------------------
  alpha Z        PSCENC =        31.43481396
  Ewald energy   TEWEN  =     52514.91847063
  -Hartree energ DENC   =    -79129.52004113
  -exchange      EXHF   =         0.00000000
  -V(xc)+E(xc)   XCENC  =       966.70665001
  PAW double counting   =     25771.56077586   -27990.81341399
  entropy T*S    EENTRO =         0.00000000
  eigenvalues    EBANDS =       111.15648313
  atomic energy  EATOM  =     29209.64727781
  Solvation  Ediel_sol  =         0.00000000
  ---------------------------------------------------
  free energy    TOTEN  =      1485.09101628 eV

  energy without entropy =     1485.09101628  energy(sigma->0) =     1485.09101628


--------------------------------------------------------------------------------------------------------




----------------------------------------- Iteration    1(   2)  ---------------------------------------


     EDDAV:  cpu time    4.5304: real time    4.5344
       DOS:  cpu time    0.0001: real time    0.0001
    --------------------------------------------
      LOOP:  cpu time    4.5329: real time    4.5400

 eigenvalue-minimisations  :   728
 total energy-change (2. order) :-0.1349916E+04  (-0.1182116E+04)
 number of electron     231.0000000 magnetization      63.0000000
 augmentation part      231.0000000 magnetization      63.0000000

 Free energy of the ion-electron system (eV)
  ---------------------------------------------------
  alpha Z        PSCENC =        31.43481396
  Ewald energy   TEWEN  =     52514.91847063
  -Hartree energ DENC   =    -79129.52004113
  -exchange      EXHF   =         0.00000000
  -V(xc)+E(xc)   XCENC  =       966.70665001
  PAW double counting   =     25771.56077586   -27990.81341399
  entropy T*S    EENTRO =         0.00000000
  eigenvalues    EBANDS =     -1238.75998051
  atomic energy  EATOM  =     29209.64727781
  Solvation  Ediel_sol  =         0.00000000
  ---------------------------------------------------
  free energy    TOTEN  =       135.17455264 eV

  energy without entropy =      135.17455264  energy(sigma->0) =      135.17455264


--------------------------------------------------------------------------------------------------------




----------------------------------------- Iteration    1(   3)  ---------------------------------------


     EDDAV:  cpu time    5.1204: real time    5.1250
       DOS:  cpu time    0.0001: real time    0.0001
    --------------------------------------------
      LOOP:  cpu time    5.1252: real time    5.1326

 eigenvalue-minimisations  :   856
 total energy-change (2. order) :-0.1611054E+03  (-0.1527231E+03)
 number of electron     231.0000000 magnetization      63.0000000
 augmentation part      231.0000000 magnetization      63.0000000

 Free energy of the ion-electron system (eV)
  ---------------------------------------------------
  alpha Z        PSCENC =        31.43481396
  Ewald energy   TEWEN  =     52514.91847063
  -Hartree energ DENC   =    -79129.52004113
  -exchange      EXHF   =         0.00000000
  -V(xc)+E(xc)   XCENC  =       966.70665001
  PAW double counting   =     25771.56077586   -27990.81341399
  entropy T*S    EENTRO =         0.00000000
  eigenvalues    EBANDS =     -1399.86533298
  atomic energy  EATOM  =     29209.64727781
  Solvation  Ediel_sol  =         0.00000000
  ---------------------------------------------------
  free energy    TOTEN  =       -25.93079983 eV

  energy without entropy =      -25.93079983  energy(sigma->0) =      -25.93079983


--------------------------------------------------------------------------------------------------------




----------------------------------------- Iteration    1(   4)  ---------------------------------------


     EDDAV:  cpu time    5.1108: real time    5.1275
       DOS:  cpu time    0.0001: real time    0.0001
    --------------------------------------------
      LOOP:  cpu time    5.1130: real time    5.1325

 eigenvalue-minimisations  :   848
 total energy-change (2. order) :-0.1305910E+02  (-0.1222531E+02)
 number of electron     231.0000000 magnetization      63.0000000
 augmentation part      231.0000000 magnetization      63.0000000

 Free energy of the ion-electron system (eV)
  ---------------------------------------------------
  alpha Z        PSCENC =        31.43481396
  Ewald energy   TEWEN  =     52514.91847063
  -Hartree energ DENC   =    -79129.52004113
  -exchange      EXHF   =         0.00000000
  -V(xc)+E(xc)   XCENC  =       966.70665001
  PAW double counting   =     25771.56077586   -27990.81341399
  entropy T*S    EENTRO =        -0.00000000
  eigenvalues    EBANDS =     -1412.92442969
  atomic energy  EATOM  =     29209.64727781
  Solvation  Ediel_sol  =         0.00000000
  ---------------------------------------------------
  free energy    TOTEN  =       -38.98989653 eV

  energy without entropy =      -38.98989653  energy(sigma->0) =      -38.98989653


--------------------------------------------------------------------------------------------------------




----------------------------------------- Iteration    1(   5)  ---------------------------------------


     EDDAV:  cpu time    5.3379: real time    5.3414
       DOS:  cpu time    0.0001: real time    0.0001
    CHARGE:  cpu time    0.2383: real time    0.2384
    MIXING:  cpu time    0.0123: real time    0.0124
    --------------------------------------------
      LOOP:  cpu time    5.5911: real time    5.5976

 eigenvalue-minimisations  :   896
 total energy-change (2. order) :-0.4435599E+00  (-0.4421841E+00)
 number of electron     231.0000830 magnetization      26.2000083
 augmentation part      135.1402229 magnetization      21.4377888

 Broyden mixing:
  rms(total) = 0.79011E+01    rms(broyden)= 0.78991E+01
  rms(prec ) = 0.80224E+01
  weight for this iteration     100.00

 Free energy of the ion-electron system (eV)
  ---------------------------------------------------
  alpha Z        PSCENC =        31.43481396
  Ewald energy   TEWEN  =     52514.91847063
  -Hartree energ DENC   =    -79129.52004113
  -exchange      EXHF   =         0.00000000
  -V(xc)+E(xc)   XCENC  =       966.70665001
  PAW double counting   =     25771.56077586   -27990.81341399
  entropy T*S    EENTRO =         0.00000000
  eigenvalues    EBANDS =     -1413.36798957
  atomic energy  EATOM  =     29209.64727781
  Solvation  Ediel_sol  =         0.00000000
  ---------------------------------------------------
  free energy    TOTEN  =       -39.43345642 eV

  energy without entropy =      -39.43345642  energy(sigma->0) =      -39.43345642


--------------------------------------------------------------------------------------------------------




----------------------------------------- Iteration    1(   6)  ---------------------------------------


    POTLOK:  cpu time    0.4964: real time    0.4972
    SETDIJ:  cpu time    0.0106: real time    0.0109
    EDDIAG:  cpu time    0.6915: real time    0.6918
  RMM-DIIS:  cpu time    3.6603: real time    3.6636
    ORTHCH:  cpu time    0.0572: real time    0.0575
       DOS:  cpu time    0.0001: real time    0.0001
    CHARGE:  cpu time    0.2347: real time    0.2348
    MIXING:  cpu time    0.0137: real time    0.0137
    --------------------------------------------
      LOOP:  cpu time    5.1678: real time    5.1757

 eigenvalue-minimisations  :   689
 total energy-change (2. order) :-0.1761843E+02  (-0.9602463E+01)
 number of electron     231.0000903 magnetization       2.0154884
 augmentation part      150.3587973 magnetization       2.9486265

 Broyden mixing:
  rms(total) = 0.40494E+01    rms(broyden)= 0.40476E+01
  rms(prec ) = 0.40965E+01
  weight for this iteration     100.00

 eigenvalues of (default mixing * dielectric matrix)
  average eigenvalue GAMMA=   1.6161
  1.6161

 Free energy of the ion-electron system (eV)
  ---------------------------------------------------
  alpha Z        PSCENC =        31.43481396
  Ewald energy   TEWEN  =     52514.91847063
  -Hartree energ DENC   =    -78751.16216871
  -exchange      EXHF   =         0.00000000
  -V(xc)+E(xc)   XCENC  =       931.81017288
  PAW double counting   =     25749.76412951   -27909.58503561
  entropy T*S    EENTRO =         0.00000000
  eigenvalues    EBANDS =     -1833.87954804
  atomic energy  EATOM  =     29209.64727781
  Solvation  Ediel_sol  =         0.00000000
  ---------------------------------------------------
  free energy    TOTEN  =       -57.05188756 eV

  energy without entropy =      -57.05188756  energy(sigma->0) =      -57.05188756


--------------------------------------------------------------------------------------------------------




----------------------------------------- Iteration    1(   7)  ---------------------------------------


    POTLOK:  cpu time    0.5001: real time    0.5013
    SETDIJ:  cpu time    0.0109: real time    0.0109
    EDDIAG:  cpu time    0.6870: real time    0.6944
  RMM-DIIS:  cpu time    3.8660: real time    3.8777
    ORTHCH:  cpu time    0.0533: real time    0.0534
       DOS:  cpu time    0.0001: real time    0.0001
    CHARGE:  cpu time    0.2354: real time    0.2358
    MIXING:  cpu time    0.0134: real time    0.0134
    --------------------------------------------
      LOOP:  cpu time    5.3697: real time    5.3928

 eigenvalue-minimisations  :   690
 total energy-change (2. order) :-0.2494415E+01  (-0.2425366E+01)
 number of electron     231.0000895 magnetization      -0.3856026
 augmentation part      147.8887552 magnetization      -0.5537431

 Broyden mixing:
  rms(total) = 0.78054E+00    rms(broyden)= 0.77983E+00
  rms(prec ) = 0.91712E+00
  weight for this iteration     100.00

 eigenvalues of (default mixing * dielectric matrix)
  average eigenvalue GAMMA=   1.1590
  0.8475  1.4706

 Free energy of the ion-electron system (eV)
  ---------------------------------------------------
  alpha Z        PSCENC =        31.43481396
  Ewald energy   TEWEN  =     52514.91847063
  -Hartree energ DENC   =    -79000.03294187
  -exchange      EXHF   =         0.00000000
  -V(xc)+E(xc)   XCENC  =       931.79699832
  PAW double counting   =     26199.55522361   -28404.34627727
  entropy T*S    EENTRO =         0.00000000
  eigenvalues    EBANDS =     -1542.51986759
  atomic energy  EATOM  =     29209.64727781
  Solvation  Ediel_sol  =         0.00000000
  ---------------------------------------------------
  free energy    TOTEN  =       -59.54630239 eV

  energy without entropy =      -59.54630239  energy(sigma->0) =      -59.54630239


--------------------------------------------------------------------------------------------------------




----------------------------------------- Iteration    1(   8)  ---------------------------------------


    POTLOK:  cpu time    0.4967: real time    0.4994
    SETDIJ:  cpu time    0.0108: real time    0.0111
    EDDIAG:  cpu time    0.6900: real time    0.6909
  RMM-DIIS:  cpu time    3.7676: real time    3.7711
    ORTHCH:  cpu time    0.0535: real time    0.0535
       DOS:  cpu time    0.0002: real time    0.0002
    CHARGE:  cpu time    0.2337: real time    0.2374
    MIXING:  cpu time    0.0154: real time    0.0154
    --------------------------------------------
      LOOP:  cpu time    5.2710: real time    5.2840

 eigenvalue-minimisations  :   690
 total energy-change (2. order) : 0.5624426E+00  (-0.6304057E+00)
 number of electron     231.0000883 magnetization       0.2076144
 augmentation part      147.8408836 magnetization      -0.4280682

 Broyden mixing:
  rms(total) = 0.49859E+00    rms(broyden)= 0.49819E+00
  rms(prec ) = 0.61976E+00
  weight for this iteration     100.00

 eigenvalues of (default mixing * dielectric matrix)
  average eigenvalue GAMMA=   0.9599
  1.4528  0.8532  0.5736

 Free energy of the ion-electron system (eV)
  ---------------------------------------------------
  alpha Z        PSCENC =        31.43481396
  Ewald energy   TEWEN  =     52514.91847063
  -Hartree energ DENC   =    -79055.45774616
  -exchange      EXHF   =         0.00000000
  -V(xc)+E(xc)   XCENC  =       931.55100817
  PAW double counting   =     26432.50621386   -28650.40542450
  entropy T*S    EENTRO =         0.00000000
  eigenvalues    EBANDS =     -1473.17847355
  atomic energy  EATOM  =     29209.64727781
  Solvation  Ediel_sol  =         0.00000000
  ---------------------------------------------------
  free energy    TOTEN  =       -58.98385977 eV

  energy without entropy =      -58.98385977  energy(sigma->0) =      -58.98385977


--------------------------------------------------------------------------------------------------------




----------------------------------------- Iteration    1(   9)  ---------------------------------------


    POTLOK:  cpu time    0.9137: real time    0.9273
    SETDIJ:  cpu time    0.0102: real time    0.0102
    EDDIAG:  cpu time    0.7060: real time    0.7064
  RMM-DIIS:  cpu time    3.7408: real time    3.7888
    ORTHCH:  cpu time    0.0489: real time    0.0553
       DOS:  cpu time    0.0002: real time    0.0002
    CHARGE:  cpu time    0.2377: real time    0.2378
    MIXING:  cpu time    0.0145: real time    0.0145
    --------------------------------------------
      LOOP:  cpu time    5.6756: real time    5.7467

 eigenvalue-minimisations  :   690
 total energy-change (2. order) : 0.7526770E+00  (-0.1007748E+00)
 number of electron     231.0000890 magnetization       0.7265536
 augmentation part      148.0957619 magnetization      -0.0283398

 Broyden mixing:
  rms(total) = 0.18954E+00    rms(broyden)= 0.18938E+00
  rms(prec ) = 0.20342E+00
  weight for this iteration     100.00

 eigenvalues of (default mixing * dielectric matrix)
  average eigenvalue GAMMA=   1.0443
  1.5995  1.0290  1.0290  0.5198

 Free energy of the ion-electron system (eV)
  ---------------------------------------------------
  alpha Z        PSCENC =        31.43481396
  Ewald energy   TEWEN  =     52514.91847063
  -Hartree energ DENC   =    -79048.01641226
  -exchange      EXHF   =         0.00000000
  -V(xc)+E(xc)   XCENC  =       931.19711693
  PAW double counting   =     26519.84695200   -28741.52554541
  entropy T*S    EENTRO =         0.00000000
  eigenvalues    EBANDS =     -1475.73385645
  atomic energy  EATOM  =     29209.64727781
  Solvation  Ediel_sol  =         0.00000000
  ---------------------------------------------------
  free energy    TOTEN  =       -58.23118279 eV

  energy without entropy =      -58.23118279  energy(sigma->0) =      -58.23118279


--------------------------------------------------------------------------------------------------------




----------------------------------------- Iteration    1(  10)  ---------------------------------------


    POTLOK:  cpu time    0.4956: real time    0.4961
    SETDIJ:  cpu time    0.0103: real time    0.0103
    EDDIAG:  cpu time    0.6893: real time    0.6900
  RMM-DIIS:  cpu time    3.7594: real time    3.7694
    ORTHCH:  cpu time    0.0563: real time    0.0565
       DOS:  cpu time    0.0002: real time    0.0002
    CHARGE:  cpu time    0.2385: real time    0.2386
    MIXING:  cpu time    0.0160: real time    0.0160
    --------------------------------------------
      LOOP:  cpu time    5.2695: real time    5.2839

 eigenvalue-minimisations  :   691
 total energy-change (2. order) : 0.3963372E-01  (-0.1984999E-01)
 number of electron     231.0000888 magnetization       0.9705185
 augmentation part      148.0434144 magnetization       0.1041184

 Broyden mixing:
  rms(total) = 0.12994E+00    rms(broyden)= 0.12992E+00
  rms(prec ) = 0.13900E+00
  weight for this iteration     100.00

 eigenvalues of (default mixing * dielectric matrix)
  average eigenvalue GAMMA=   1.1052
  2.1042  1.2333  1.0285  0.6469  0.5129

 Free energy of the ion-electron system (eV)
  ---------------------------------------------------
  alpha Z        PSCENC =        31.43481396
  Ewald energy   TEWEN  =     52514.91847063
  -Hartree energ DENC   =    -79048.89729679
  -exchange      EXHF   =         0.00000000
  -V(xc)+E(xc)   XCENC  =       930.98139678
  PAW double counting   =     26678.88042675   -28908.62586574
  entropy T*S    EENTRO =         0.00000000
  eigenvalues    EBANDS =     -1466.53077247
  atomic energy  EATOM  =     29209.64727781
  Solvation  Ediel_sol  =         0.00000000
  ---------------------------------------------------
  free energy    TOTEN  =       -58.19154907 eV

  energy without entropy =      -58.19154907  energy(sigma->0) =      -58.19154907


--------------------------------------------------------------------------------------------------------




----------------------------------------- Iteration    1(  11)  ---------------------------------------


    POTLOK:  cpu time    0.4966: real time    0.4975
    SETDIJ:  cpu time    0.0103: real time    0.0109
    EDDIAG:  cpu time    0.6910: real time    0.6923
  RMM-DIIS:  cpu time    3.7723: real time    3.7753
    ORTHCH:  cpu time    0.0533: real time    0.0533
       DOS:  cpu time    0.0002: real time    0.0002
    CHARGE:  cpu time    0.2367: real time    0.2371
    MIXING:  cpu time    0.0167: real time    0.0167
    --------------------------------------------
      LOOP:  cpu time    5.2805: real time    5.2894

 eigenvalue-minimisations  :   690
 total energy-change (2. order) : 0.2522146E-01  (-0.6036123E-02)
 number of electron     231.0000888 magnetization       0.9853961
 augmentation part      148.0278874 magnetization       0.0430838

 Broyden mixing:
  rms(total) = 0.87371E-01    rms(broyden)= 0.87365E-01
  rms(prec ) = 0.92511E-01
  weight for this iteration     100.00

 eigenvalues of (default mixing * dielectric matrix)
  average eigenvalue GAMMA=   1.2351
  2.7461  1.2737  1.2737  0.5167  0.8001  0.8001

 Free energy of the ion-electron system (eV)
  ---------------------------------------------------
  alpha Z        PSCENC =        31.43481396
  Ewald energy   TEWEN  =     52514.91847063
  -Hartree energ DENC   =    -79045.73761072
  -exchange      EXHF   =         0.00000000
  -V(xc)+E(xc)   XCENC  =       930.67626421
  PAW double counting   =     26850.41090734   -29088.46711128
  entropy T*S    EENTRO =         0.00000000
  eigenvalues    EBANDS =     -1461.04933957
  atomic energy  EATOM  =     29209.64727781
  Solvation  Ediel_sol  =         0.00000000
  ---------------------------------------------------
  free energy    TOTEN  =       -58.16632761 eV

  energy without entropy =      -58.16632761  energy(sigma->0) =      -58.16632761


--------------------------------------------------------------------------------------------------------




----------------------------------------- Iteration    1(  12)  ---------------------------------------


    POTLOK:  cpu time    0.4946: real time    0.4962
    SETDIJ:  cpu time    0.0106: real time    0.0110
    EDDIAG:  cpu time    0.6899: real time    0.6909
  RMM-DIIS:  cpu time    3.8354: real time    3.8453
    ORTHCH:  cpu time    0.0539: real time    0.0539
       DOS:  cpu time    0.0002: real time    0.0002
    CHARGE:  cpu time    0.2338: real time    0.2344
    MIXING:  cpu time    0.0169: real time    0.0169
    --------------------------------------------
      LOOP:  cpu time    5.3388: real time    5.3551

 eigenvalue-minimisations  :   690
 total energy-change (2. order) : 0.7564724E-02  (-0.2488223E-02)
 number of electron     231.0000889 magnetization       0.9865166
 augmentation part      148.0420699 magnetization       0.0227068

 Broyden mixing:
  rms(total) = 0.52159E-01    rms(broyden)= 0.52152E-01
  rms(prec ) = 0.56613E-01
  weight for this iteration     100.00

 eigenvalues of (default mixing * dielectric matrix)
  average eigenvalue GAMMA=   1.3316
  3.5380  1.5799  1.3024  0.8508  0.8508  0.5140  0.6856

 Free energy of the ion-electron system (eV)
  ---------------------------------------------------
  alpha Z        PSCENC =        31.43481396
  Ewald energy   TEWEN  =     52514.91847063
  -Hartree energ DENC   =    -79043.99528173
  -exchange      EXHF   =         0.00000000
  -V(xc)+E(xc)   XCENC  =       930.31483075
  PAW double counting   =     27015.57474104   -29261.22987468
  entropy T*S    EENTRO =         0.00000000
  eigenvalues    EBANDS =     -1454.82374068
  atomic energy  EATOM  =     29209.64727781
  Solvation  Ediel_sol  =         0.00000000
  ---------------------------------------------------
  free energy    TOTEN  =       -58.15876289 eV

  energy without entropy =      -58.15876289  energy(sigma->0) =      -58.15876289


--------------------------------------------------------------------------------------------------------




----------------------------------------- Iteration    1(  13)  ---------------------------------------


    POTLOK:  cpu time    0.4950: real time    0.4952
    SETDIJ:  cpu time    0.0101: real time    0.0101
    EDDIAG:  cpu time    0.6858: real time    0.6935
  RMM-DIIS:  cpu time    3.7396: real time    3.7447
    ORTHCH:  cpu time    0.0546: real time    0.0546
       DOS:  cpu time    0.0002: real time    0.0002
    CHARGE:  cpu time    0.2362: real time    0.2365
    MIXING:  cpu time    0.0178: real time    0.0178
    --------------------------------------------
      LOOP:  cpu time    5.2431: real time    5.2592

 eigenvalue-minimisations  :   690
 total energy-change (2. order) : 0.2300772E-02  (-0.7091360E-03)
 number of electron     231.0000888 magnetization       0.9879894
 augmentation part      148.0620120 magnetization       0.0319144

 Broyden mixing:
  rms(total) = 0.27958E-01    rms(broyden)= 0.27951E-01
  rms(prec ) = 0.29948E-01
  weight for this iteration     100.00

 eigenvalues of (default mixing * dielectric matrix)
  average eigenvalue GAMMA=   1.4283
  4.4914  1.9079  1.2633  1.0597  0.8233  0.8233  0.5191  0.5384

 Free energy of the ion-electron system (eV)
  ---------------------------------------------------
  alpha Z        PSCENC =        31.43481396
  Ewald energy   TEWEN  =     52514.91847063
  -Hartree energ DENC   =    -79042.82069957
  -exchange      EXHF   =         0.00000000
  -V(xc)+E(xc)   XCENC  =       930.12212182
  PAW double counting   =     27091.59505155   -29340.63532279
  entropy T*S    EENTRO =         0.00000000
  eigenvalues    EBANDS =     -1452.41817553
  atomic energy  EATOM  =     29209.64727781
  Solvation  Ediel_sol  =         0.00000000
  ---------------------------------------------------
  free energy    TOTEN  =       -58.15646212 eV

  energy without entropy =      -58.15646212  energy(sigma->0) =      -58.15646212


--------------------------------------------------------------------------------------------------------




----------------------------------------- Iteration    1(  14)  ---------------------------------------


    POTLOK:  cpu time    0.4962: real time    0.4967
    SETDIJ:  cpu time    0.0103: real time    0.0103
    EDDIAG:  cpu time    0.6906: real time    0.6913
  RMM-DIIS:  cpu time    3.6890: real time    3.6924
    ORTHCH:  cpu time    0.0542: real time    0.0542
       DOS:  cpu time    0.0002: real time    0.0002
    CHARGE:  cpu time    0.2358: real time    0.2359
    MIXING:  cpu time    0.0187: real time    0.0188
    --------------------------------------------
      LOOP:  cpu time    5.1987: real time    5.2063

 eigenvalue-minimisations  :   688
 total energy-change (2. order) : 0.6498908E-03  (-0.3198634E-03)
 number of electron     231.0000889 magnetization       0.9933986
 augmentation part      148.0812650 magnetization       0.0566482

 Broyden mixing:
  rms(total) = 0.92636E-02    rms(broyden)= 0.92605E-02
  rms(prec ) = 0.98383E-02
  weight for this iteration     100.00

 eigenvalues of (default mixing * dielectric matrix)
  average eigenvalue GAMMA=   1.4321
  4.6995  1.9078  1.3788  1.0799  1.0799  0.9110  0.7808  0.5119  0.5398

 Free energy of the ion-electron system (eV)
  ---------------------------------------------------
  alpha Z        PSCENC =        31.43481396
  Ewald energy   TEWEN  =     52514.91847063
  -Hartree energ DENC   =    -79041.71196378
  -exchange      EXHF   =         0.00000000
  -V(xc)+E(xc)   XCENC  =       929.93964887
  PAW double counting   =     27159.51868047   -29411.61361875
  entropy T*S    EENTRO =         0.00000000
  eigenvalues    EBANDS =     -1450.28912144
  atomic energy  EATOM  =     29209.64727781
  Solvation  Ediel_sol  =         0.00000000
  ---------------------------------------------------
  free energy    TOTEN  =       -58.15581223 eV

  energy without entropy =      -58.15581223  energy(sigma->0) =      -58.15581223


--------------------------------------------------------------------------------------------------------




----------------------------------------- Iteration    1(  15)  ---------------------------------------


    POTLOK:  cpu time    0.4965: real time    0.4968
    SETDIJ:  cpu time    0.0102: real time    0.0102
    EDDIAG:  cpu time    0.6896: real time    0.6906
  RMM-DIIS:  cpu time    3.9803: real time    3.9902
    ORTHCH:  cpu time    0.0538: real time    0.0538
       DOS:  cpu time    0.0002: real time    0.0002
    CHARGE:  cpu time    0.2265: real time    0.2323
    MIXING:  cpu time    0.0199: real time    0.0199
    --------------------------------------------
      LOOP:  cpu time    5.4806: real time    5.5006

 eigenvalue-minimisations  :   695
 total energy-change (2. order) : 0.2894224E-04  (-0.3820941E-04)
 number of electron     231.0000889 magnetization       0.9956330
 augmentation part      148.0746387 magnetization       0.0540174

 Broyden mixing:
  rms(total) = 0.57283E-02    rms(broyden)= 0.57278E-02
  rms(prec ) = 0.61995E-02
  weight for this iteration     100.00

 eigenvalues of (default mixing * dielectric matrix)
  average eigenvalue GAMMA=   1.5040
  4.8131  2.6996  1.6954  1.1654  1.1654  0.8651  0.7931  0.7931  0.5118  0.5380

 Free energy of the ion-electron system (eV)
  ---------------------------------------------------
  alpha Z        PSCENC =        31.43481396
  Ewald energy   TEWEN  =     52514.91847063
  -Hartree energ DENC   =    -79041.36525399
  -exchange      EXHF   =         0.00000000
  -V(xc)+E(xc)   XCENC  =       929.92857826
  PAW double counting   =     27169.54754285   -29422.23377072
  entropy T*S    EENTRO =         0.00000000
  eigenvalues    EBANDS =     -1450.03344209
  atomic energy  EATOM  =     29209.64727781
  Solvation  Ediel_sol  =         0.00000000
  ---------------------------------------------------
  free energy    TOTEN  =       -58.15578328 eV

  energy without entropy =      -58.15578328  energy(sigma->0) =      -58.15578328


--------------------------------------------------------------------------------------------------------




----------------------------------------- Iteration    1(  16)  ---------------------------------------


    POTLOK:  cpu time    0.4961: real time    0.4966
    SETDIJ:  cpu time    0.0102: real time    0.0102
    EDDIAG:  cpu time    0.6900: real time    0.6924
  RMM-DIIS:  cpu time    3.6999: real time    3.7029
    ORTHCH:  cpu time    0.0534: real time    0.0534
       DOS:  cpu time    0.0002: real time    0.0002
    CHARGE:  cpu time    0.2353: real time    0.2355
    MIXING:  cpu time    0.0210: real time    0.0210
    --------------------------------------------
      LOOP:  cpu time    5.2097: real time    5.2188

 eigenvalue-minimisations  :   688
 total energy-change (2. order) : 0.6091856E-04  (-0.2574891E-04)
 number of electron     231.0000889 magnetization       0.9998204
 augmentation part      148.0721486 magnetization       0.0564509

 Broyden mixing:
  rms(total) = 0.25542E-02    rms(broyden)= 0.25530E-02
  rms(prec ) = 0.28483E-02
  weight for this iteration     100.00

 eigenvalues of (default mixing * dielectric matrix)
  average eigenvalue GAMMA=   1.5160
  4.8679  3.2061  1.7697  1.2629  1.0470  1.0470  0.9319  0.7480  0.7480  0.5124
  0.5356

 Free energy of the ion-electron system (eV)
  ---------------------------------------------------
  alpha Z        PSCENC =        31.43481396
  Ewald energy   TEWEN  =     52514.91847063
  -Hartree energ DENC   =    -79040.18943077
  -exchange      EXHF   =         0.00000000
  -V(xc)+E(xc)   XCENC  =       929.91370923
  PAW double counting   =     27175.48296982   -29428.58185914
  entropy T*S    EENTRO =         0.00000000
  eigenvalues    EBANDS =     -1450.78167392
  atomic energy  EATOM  =     29209.64727781
  Solvation  Ediel_sol  =         0.00000000
  ---------------------------------------------------
  free energy    TOTEN  =       -58.15572237 eV

  energy without entropy =      -58.15572237  energy(sigma->0) =      -58.15572237


--------------------------------------------------------------------------------------------------------




----------------------------------------- Iteration    1(  17)  ---------------------------------------


    POTLOK:  cpu time    0.4961: real time    0.4967
    SETDIJ:  cpu time    0.0102: real time    0.0102
    EDDIAG:  cpu time    0.7011: real time    0.7025
  RMM-DIIS:  cpu time    3.7559: real time    3.7591
    ORTHCH:  cpu time    0.0531: real time    0.0531
       DOS:  cpu time    0.0002: real time    0.0002
    CHARGE:  cpu time    0.2377: real time    0.2378
    MIXING:  cpu time    0.0238: real time    0.0238
    --------------------------------------------
      LOOP:  cpu time    5.2814: real time    5.2953

 eigenvalue-minimisations  :   694
 total energy-change (2. order) :-0.4627946E-06  (-0.8720736E-05)
 number of electron     231.0000889 magnetization       1.0020058
 augmentation part      148.0723328 magnetization       0.0585969

 Broyden mixing:
  rms(total) = 0.14583E-02    rms(broyden)= 0.14575E-02
  rms(prec ) = 0.16561E-02
  weight for this iteration     100.00

 eigenvalues of (default mixing * dielectric matrix)
  average eigenvalue GAMMA=   1.4998
  4.8874  3.4624  1.8611  1.4023  1.1560  1.1560  0.8928  0.7870  0.7870  0.5117
  0.5385  0.5556

 Free energy of the ion-electron system (eV)
  ---------------------------------------------------
  alpha Z        PSCENC =        31.43481396
  Ewald energy   TEWEN  =     52514.91847063
  -Hartree energ DENC   =    -79039.89441610
  -exchange      EXHF   =         0.00000000
  -V(xc)+E(xc)   XCENC  =       929.90850803
  PAW double counting   =     27176.60153238   -29429.79152162
  entropy T*S    EENTRO =         0.00000000
  eigenvalues    EBANDS =     -1450.98038792
  atomic energy  EATOM  =     29209.64727781
  Solvation  Ediel_sol  =         0.00000000
  ---------------------------------------------------
  free energy    TOTEN  =       -58.15572283 eV

  energy without entropy =      -58.15572283  energy(sigma->0) =      -58.15572283


--------------------------------------------------------------------------------------------------------




----------------------------------------- Iteration    1(  18)  ---------------------------------------


    POTLOK:  cpu time    0.4999: real time    0.5003
    SETDIJ:  cpu time    0.0104: real time    0.0108
    EDDIAG:  cpu time    0.6959: real time    0.6968
  RMM-DIIS:  cpu time    3.7607: real time    3.7755
    ORTHCH:  cpu time    0.0535: real time    0.0535
       DOS:  cpu time    0.0002: real time    0.0002
    CHARGE:  cpu time    0.2313: real time    0.2317
    MIXING:  cpu time    0.0252: real time    0.0252
    --------------------------------------------
      LOOP:  cpu time    5.2804: real time    5.2989

 eigenvalue-minimisations  :   691
 total energy-change (2. order) : 0.7526723E-06  (-0.1625154E-05)
 number of electron     231.0000889 magnetization       1.0002398
 augmentation part      148.0723715 magnetization       0.0568233

 Broyden mixing:
  rms(total) = 0.94636E-03    rms(broyden)= 0.94608E-03
  rms(prec ) = 0.10293E-02
  weight for this iteration     100.00

 eigenvalues of (default mixing * dielectric matrix)
  average eigenvalue GAMMA=   1.5255
  4.8763  3.2860  2.3379  1.7716  1.2609  1.2552  0.9931  0.8977  0.7725  0.7725
  0.5120  0.5379  0.5580

 Free energy of the ion-electron system (eV)
  ---------------------------------------------------
  alpha Z        PSCENC =        31.43481396
  Ewald energy   TEWEN  =     52514.91847063
  -Hartree energ DENC   =    -79039.85389015
  -exchange      EXHF   =         0.00000000
  -V(xc)+E(xc)   XCENC  =       929.90703588
  PAW double counting   =     27176.74788216   -29429.96003507
  entropy T*S    EENTRO =         0.00000000
  eigenvalues    EBANDS =     -1450.99727731
  atomic energy  EATOM  =     29209.64727781
  Solvation  Ediel_sol  =         0.00000000
  ---------------------------------------------------
  free energy    TOTEN  =       -58.15572208 eV

  energy without entropy =      -58.15572208  energy(sigma->0) =      -58.15572208


--------------------------------------------------------------------------------------------------------




----------------------------------------- Iteration    1(  19)  ---------------------------------------


    POTLOK:  cpu time    0.4961: real time    0.4983
    SETDIJ:  cpu time    0.0106: real time    0.0110
    EDDIAG:  cpu time    0.6905: real time    0.6914
  RMM-DIIS:  cpu time    3.7284: real time    3.7316
    ORTHCH:  cpu time    0.0543: real time    0.0543
       DOS:  cpu time    0.0002: real time    0.0002
    CHARGE:  cpu time    0.2352: real time    0.2355
    MIXING:  cpu time    0.0257: real time    0.0257
    --------------------------------------------
      LOOP:  cpu time    5.2444: real time    5.2543

 eigenvalue-minimisations  :   688
 total energy-change (2. order) : 0.1272747E-05  (-0.9254873E-06)
 number of electron     231.0000889 magnetization       1.0001590
 augmentation part      148.0726591 magnetization       0.0567459

 Broyden mixing:
  rms(total) = 0.45886E-03    rms(broyden)= 0.45863E-03
  rms(prec ) = 0.49387E-03
  weight for this iteration     100.00

 eigenvalues of (default mixing * dielectric matrix)
  average eigenvalue GAMMA=   1.4968
  4.8437  3.2709  2.8372  1.7177  1.2357  1.2357  0.9440  0.8901  0.8373  0.8373
  0.7109  0.5124  0.5323  0.5495

 Free energy of the ion-electron system (eV)
  ---------------------------------------------------
  alpha Z        PSCENC =        31.43481396
  Ewald energy   TEWEN  =     52514.91847063
  -Hartree energ DENC   =    -79039.90757677
  -exchange      EXHF   =         0.00000000
  -V(xc)+E(xc)   XCENC  =       929.90718226
  PAW double counting   =     27176.47300185   -29429.67688361
  entropy T*S    EENTRO =         0.00000000
  eigenvalues    EBANDS =     -1450.95200693
  atomic energy  EATOM  =     29209.64727781
  Solvation  Ediel_sol  =         0.00000000
  ---------------------------------------------------
  free energy    TOTEN  =       -58.15572080 eV

  energy without entropy =      -58.15572080  energy(sigma->0) =      -58.15572080


--------------------------------------------------------------------------------------------------------




----------------------------------------- Iteration    1(  20)  ---------------------------------------


    POTLOK:  cpu time    0.4965: real time    0.4967
    SETDIJ:  cpu time    0.0103: real time    0.0103
    EDDIAG:  cpu time    0.6905: real time    0.6911
  RMM-DIIS:  cpu time    2.7204: real time    2.7229
    ORTHCH:  cpu time    0.0538: real time    0.0538
       DOS:  cpu time    0.0001: real time    0.0001
    --------------------------------------------
      LOOP:  cpu time    3.9750: real time    3.9809

 eigenvalue-minimisations  :   466
 total energy-change (2. order) : 0.2806009E-06  (-0.1839472E-06)
 number of electron     231.0000889 magnetization       1.0001590
 augmentation part      148.0726591 magnetization       0.0567459

 Free energy of the ion-electron system (eV)
  ---------------------------------------------------
  alpha Z        PSCENC =        31.43481396
  Ewald energy   TEWEN  =     52514.91847063
  -Hartree energ DENC   =    -79039.91795313
  -exchange      EXHF   =         0.00000000
  -V(xc)+E(xc)   XCENC  =       929.90790556
  PAW double counting   =     27176.14578364   -29429.34250747
  entropy T*S    EENTRO =        -0.00000000
  eigenvalues    EBANDS =     -1450.94951153
  atomic energy  EATOM  =     29209.64727781
  Solvation  Ediel_sol  =         0.00000000
  ---------------------------------------------------
  free energy    TOTEN  =       -58.15572052 eV

  energy without entropy =      -58.15572052  energy(sigma->0) =      -58.15572052


--------------------------------------------------------------------------------------------------------




 average (electrostatic) potential at core
  the test charge radii are     0.9430
  (the norm of the test charge is              1.0000)
       1 -74.4287       2 -74.7120       3 -74.5203       4 -74.5802       5 -74.7808
       6 -74.3538       7 -74.7661       8 -74.6856       9 -74.7378      10 -74.4713
      11 -74.7969      12 -74.6042      13 -74.6148      14 -74.7283      15 -74.9137
      16 -74.6906      17 -74.7435      18 -74.5802      19 -74.7898      20 -74.5940
      21 -74.4232
 
 
 
 E-fermi :  -3.6819     XC(G=0):  -0.6667     alpha+bet : -0.3245


 spin component 1

 k-point     1 :       0.0000    0.0000    0.0000
  band No.  band energies     occupation 
      1     -11.1636      1.00000
      2      -9.6005      1.00000
      3      -9.3688      1.00000
      4      -9.3314      1.00000
      5      -8.3143      1.00000
      6      -8.2014      1.00000
      7      -8.1886      1.00000
      8      -8.1265      1.00000
      9      -8.0840      1.00000
     10      -8.0031      1.00000
     11      -7.7464      1.00000
     12      -7.6847      1.00000
     13      -7.5624      1.00000
     14      -7.5560      1.00000
     15      -7.4585      1.00000
     16      -7.4237      1.00000
     17      -7.3401      1.00000
     18      -7.3052      1.00000
     19      -7.2431      1.00000
     20      -7.2038      1.00000
     21      -7.1642      1.00000
     22      -7.1292      1.00000
     23      -7.1188      1.00000
     24      -7.1057      1.00000
     25      -7.0898      1.00000
     26      -7.0432      1.00000
     27      -7.0002      1.00000
     28      -6.9990      1.00000
     29      -6.9547      1.00000
     30      -6.8987      1.00000
     31      -6.8670      1.00000
     32      -6.8230      1.00000
     33      -6.7951      1.00000
     34      -6.7517      1.00000
     35      -6.7455      1.00000
     36      -6.6801      1.00000
     37      -6.6299      1.00000
     38      -6.5830      1.00000
     39      -6.5764      1.00000
     40      -6.5458      1.00000
     41      -6.5001      1.00000
     42      -6.4562      1.00000
     43      -6.4370      1.00000
     44      -6.4316      1.00000
     45      -6.3783      1.00000
     46      -6.3762      1.00000
     47      -6.3180      1.00000
     48      -6.2749      1.00000
     49      -6.2590      1.00000
     50      -6.2490      1.00000
     51      -6.2190      1.00000
     52      -6.1862      1.00000
     53      -6.1803      1.00000
     54      -6.1202      1.00000
     55      -6.0916      1.00000
     56      -6.0831      1.00000
     57      -6.0600      1.00000
     58      -6.0466      1.00000
     59      -5.9859      1.00000
     60      -5.9494      1.00000
     61      -5.9427      1.00000
     62      -5.9180      1.00000
     63      -5.8929      1.00000
     64      -5.8767      1.00000
     65      -5.8691      1.00000
     66      -5.8448      1.00000
     67      -5.8281      1.00000
     68      -5.8077      1.00000
     69      -5.7868      1.00000
     70      -5.7783      1.00000
     71      -5.7672      1.00000
     72      -5.7356      1.00000
     73      -5.7176      1.00000
     74      -5.7101      1.00000
     75      -5.6953      1.00000
     76      -5.6640      1.00000
     77      -5.6424      1.00000
     78      -5.6200      1.00000
     79      -5.6096      1.00000
     80      -5.5910      1.00000
     81      -5.5860      1.00000
     82      -5.5682      1.00000
     83      -5.5530      1.00000
     84      -5.5428      1.00000
     85      -5.5204      1.00000
     86      -5.5101      1.00000
     87      -5.4846      1.00000
     88      -5.4790      1.00000
     89      -5.4554      1.00000
     90      -5.4473      1.00000
     91      -5.4388      1.00000
     92      -5.4243      1.00000
     93      -5.4168      1.00000
     94      -5.3995      1.00000
     95      -5.3864      1.00000
     96      -5.3768      1.00000
     97      -5.3651      1.00000
     98      -5.3358      1.00000
     99      -5.3259      1.00000
    100      -5.2954      1.00000
    101      -5.2864      1.00000
    102      -5.2793      1.00000
    103      -5.2623      1.00000
    104      -5.2151      1.00000
    105      -5.2013      1.00000
    106      -5.1821      1.00000
    107      -5.1715      1.00000
    108      -5.1515      1.00000
    109      -5.1306      1.00000
    110      -5.0584      1.00000
    111      -4.9190      1.00000
    112      -4.8855      1.00000
    113      -4.7707      1.00000
    114      -4.6349      1.00000
    115      -4.3448      1.00000
    116      -3.6836      1.00000
    117      -3.2378      0.00000
    118      -3.0085      0.00000
    119      -2.9633      0.00000
    120      -2.9406      0.00000
    121      -2.8458      0.00000
    122      -2.7687      0.00000
    123      -2.6512      0.00000
    124      -2.5377      0.00000
    125      -2.4048      0.00000
    126      -1.5140      0.00000
    127      -1.3284      0.00000
    128      -1.1018      0.00000
    129      -0.9760      0.00000
    130      -0.9186      0.00000
    131      -0.7618      0.00000
    132      -0.6812      0.00000
    133      -0.6291      0.00000
    134      -0.4512      0.00000
    135      -0.3649      0.00000
    136      -0.2868      0.00000
    137      -0.2448      0.00000
    138      -0.1716      0.00000
    139       0.1339      0.00000
    140       0.1479      0.00000
    141       0.3019      0.00000
    142       0.3624      0.00000
    143       0.4117      0.00000
    144       0.4212      0.00000
    145       0.4646      0.00000
    146       0.5025      0.00000
    147       0.5348      0.00000
    148       0.6168      0.00000
    149       0.7151      0.00000
    150       0.7258      0.00000
    151       0.7456      0.00000
    152       0.7616      0.00000
    153       0.7740      0.00000
    154       0.7809      0.00000
    155       0.7942      0.00000
    156       0.8050      0.00000
    157       0.8394      0.00000
    158       0.8499      0.00000
    159       0.8786      0.00000
    160       0.9450      0.00000
    161       1.0018      0.00000
    162       1.0359      0.00000
    163       1.0681      0.00000
    164       1.0932      0.00000
    165       1.1372      0.00000
    166       1.1452      0.00000
    167       1.1480      0.00000
    168       1.2263      0.00000
    169       1.2977      0.00000
    170       1.3461      0.00000
    171       1.3740      0.00000
    172       1.4232      0.00000

 spin component 2

 k-point     1 :       0.0000    0.0000    0.0000
  band No.  band energies     occupation 
      1     -11.1404      1.00000
      2      -9.5748      1.00000
      3      -9.3338      1.00000
      4      -9.3033      1.00000
      5      -8.2819      1.00000
      6      -8.1809      1.00000
      7      -8.1657      1.00000
      8      -8.1075      1.00000
      9      -8.0615      1.00000
     10      -7.9806      1.00000
     11      -7.7215      1.00000
     12      -7.6682      1.00000
     13      -7.5457      1.00000
     14      -7.5364      1.00000
     15      -7.4395      1.00000
     16      -7.3963      1.00000
     17      -7.3236      1.00000
     18      -7.2876      1.00000
     19      -7.2249      1.00000
     20      -7.1855      1.00000
     21      -7.1486      1.00000
     22      -7.1102      1.00000
     23      -7.1044      1.00000
     24      -7.0883      1.00000
     25      -7.0721      1.00000
     26      -7.0228      1.00000
     27      -6.9827      1.00000
     28      -6.9815      1.00000
     29      -6.9322      1.00000
     30      -6.8773      1.00000
     31      -6.8490      1.00000
     32      -6.8045      1.00000
     33      -6.7784      1.00000
     34      -6.7372      1.00000
     35      -6.7220      1.00000
     36      -6.6641      1.00000
     37      -6.6095      1.00000
     38      -6.5653      1.00000
     39      -6.5581      1.00000
     40      -6.5267      1.00000
     41      -6.4817      1.00000
     42      -6.4381      1.00000
     43      -6.4222      1.00000
     44      -6.4182      1.00000
     45      -6.3630      1.00000
     46      -6.3583      1.00000
     47      -6.3026      1.00000
     48      -6.2554      1.00000
     49      -6.2385      1.00000
     50      -6.2318      1.00000
     51      -6.1997      1.00000
     52      -6.1629      1.00000
     53      -6.1612      1.00000
     54      -6.1064      1.00000
     55      -6.0754      1.00000
     56      -6.0670      1.00000
     57      -6.0466      1.00000
     58      -6.0336      1.00000
     59      -5.9631      1.00000
     60      -5.9338      1.00000
     61      -5.9264      1.00000
     62      -5.9034      1.00000
     63      -5.8771      1.00000
     64      -5.8570      1.00000
     65      -5.8546      1.00000
     66      -5.8294      1.00000
     67      -5.8093      1.00000
     68      -5.7920      1.00000
     69      -5.7703      1.00000
     70      -5.7586      1.00000
     71      -5.7490      1.00000
     72      -5.7235      1.00000
     73      -5.7055      1.00000
     74      -5.6941      1.00000
     75      -5.6794      1.00000
     76      -5.6495      1.00000
     77      -5.6252      1.00000
     78      -5.6040      1.00000
     79      -5.5929      1.00000
     80      -5.5777      1.00000
     81      -5.5712      1.00000
     82      -5.5523      1.00000
     83      -5.5359      1.00000
     84      -5.5287      1.00000
     85      -5.4995      1.00000
     86      -5.4985      1.00000
     87      -5.4656      1.00000
     88      -5.4648      1.00000
     89      -5.4408      1.00000
     90      -5.4326      1.00000
     91      -5.4180      1.00000
     92      -5.4096      1.00000
     93      -5.4042      1.00000
     94      -5.3789      1.00000
     95      -5.3661      1.00000
     96      -5.3625      1.00000
     97      -5.3538      1.00000
     98      -5.3168      1.00000
     99      -5.3083      1.00000
    100      -5.2797      1.00000
    101      -5.2629      1.00000
    102      -5.2610      1.00000
    103      -5.2465      1.00000
    104      -5.1993      1.00000
    105      -5.1906      1.00000
    106      -5.1637      1.00000
    107      -5.1552      1.00000
    108      -5.1386      1.00000
    109      -5.1079      1.00000
    110      -5.0179      1.00000
    111      -4.8779      1.00000
    112      -4.8571      1.00000
    113      -4.7406      1.00000
    114      -4.6084      1.00000
    115      -4.3052      1.00000
    116      -3.5271      0.00000
    117      -3.1912      0.00000
    118      -2.9691      0.00000
    119      -2.9198      0.00000
    120      -2.8937      0.00000
    121      -2.8140      0.00000
    122      -2.7134      0.00000
    123      -2.6012      0.00000
    124      -2.5031      0.00000
    125      -2.3658      0.00000
    126      -1.3386      0.00000
    127      -1.2327      0.00000
    128      -1.0387      0.00000
    129      -0.9460      0.00000
    130      -0.8638      0.00000
    131      -0.7093      0.00000
    132      -0.6415      0.00000
    133      -0.5925      0.00000
    134      -0.4154      0.00000
    135      -0.3213      0.00000
    136      -0.2581      0.00000
    137      -0.2021      0.00000
    138      -0.1010      0.00000
    139       0.1578      0.00000
    140       0.1683      0.00000
    141       0.3320      0.00000
    142       0.4056      0.00000
    143       0.4294      0.00000
    144       0.4519      0.00000
    145       0.4966      0.00000
    146       0.5233      0.00000
    147       0.5711      0.00000
    148       0.6329      0.00000
    149       0.7273      0.00000
    150       0.7379      0.00000
    151       0.7561      0.00000
    152       0.7720      0.00000
    153       0.7866      0.00000
    154       0.7990      0.00000
    155       0.8066      0.00000
    156       0.8136      0.00000
    157       0.8561      0.00000
    158       0.8617      0.00000
    159       0.8962      0.00000
    160       0.9661      0.00000
    161       1.0126      0.00000
    162       1.0470      0.00000
    163       1.0764      0.00000
    164       1.1123      0.00000
    165       1.1479      0.00000
    166       1.1618      0.00000
    167       1.1746      0.00000
    168       1.2444      0.00000
    169       1.3133      0.00000
    170       1.3690      0.00000
    171       1.3884      0.00000
    172       1.4425      0.00000


--------------------------------------------------------------------------------------------------------


 soft charge-density along one line, spin component           1
         0         1         2         3         4         5         6         7         8         9
 total charge-density along one line
 
 soft charge-density along one line, spin component           2
         0         1         2         3         4         5         6         7         8         9
 total charge-density along one line
 
 pseudopotential strength for first ion, spin component:           1
-10.678  -0.024  -0.016  -0.009  -0.003   1.135   0.018   0.012
 -0.024 -10.662  -0.002   0.010  -0.005   0.018   1.124   0.001
 -0.016  -0.002 -10.676  -0.016   0.010   0.012   0.001   1.132
 -0.009   0.010  -0.016 -10.679  -0.011   0.007  -0.008   0.012
 -0.003  -0.005   0.010  -0.011 -10.671   0.002   0.003  -0.007
  1.135   0.018   0.012   0.007   0.002   6.215  -0.011  -0.008
  0.018   1.124   0.001  -0.008   0.003  -0.011   6.222  -0.001
  0.012   0.001   1.132   0.012  -0.007  -0.008  -0.001   6.217
  0.007  -0.008   0.012   1.134   0.008  -0.005   0.005  -0.008
  0.002   0.003  -0.007   0.008   1.129  -0.001  -0.002   0.004
 -0.002   0.001  -0.001   0.004   0.000   0.001  -0.001  -0.000
 -0.004   0.001  -0.002   0.008   0.000   0.001  -0.002  -0.001
  0.015   0.009   0.001  -0.001   0.002  -0.008  -0.005  -0.001
 -0.001  -0.003   0.010   0.016   0.001   0.001   0.001  -0.005
 -0.003  -0.001  -0.009   0.010   0.017   0.002   0.001   0.005
  0.015   0.008   0.001  -0.001   0.002  -0.005  -0.003   0.000
 -0.001  -0.003   0.010   0.016   0.001   0.001   0.001  -0.004
 -0.003  -0.001  -0.009   0.011   0.017   0.001   0.001   0.004
 pseudopotential strength for first ion, spin component:           2
-10.645  -0.009  -0.012  -0.004   0.005   1.109   0.006   0.009
 -0.009 -10.638   0.001   0.015   0.001   0.006   1.104  -0.001
 -0.012   0.001 -10.662  -0.015   0.011   0.009  -0.001   1.121
 -0.004   0.015  -0.015 -10.664  -0.010   0.003  -0.011   0.011
  0.005   0.001   0.011  -0.010 -10.656  -0.003  -0.001  -0.008
  1.109   0.006   0.009   0.003  -0.003   6.233  -0.003  -0.006
  0.006   1.104  -0.001  -0.011  -0.001  -0.003   6.235   0.001
  0.009  -0.001   1.121   0.011  -0.008  -0.006   0.001   6.225
  0.003  -0.011   0.011   1.122   0.007  -0.002   0.007  -0.007
 -0.003  -0.001  -0.008   0.007   1.117   0.002   0.001   0.004
 -0.002   0.000   0.000   0.002   0.001   0.001  -0.001  -0.001
 -0.004   0.001   0.000   0.003   0.002   0.001  -0.002  -0.001
  0.019   0.011   0.002  -0.000   0.003  -0.011  -0.007  -0.001
 -0.000  -0.003   0.011   0.017   0.000   0.000   0.001  -0.006
 -0.003  -0.000  -0.011   0.012   0.017   0.001   0.000   0.006
  0.020   0.012   0.002  -0.000   0.003  -0.010  -0.007  -0.001
 -0.000  -0.002   0.011   0.018   0.000   0.000   0.000  -0.004
 -0.003  -0.000  -0.011   0.013   0.018   0.001   0.000   0.006
 total augmentation occupancy for first ion, spin component:           1
  1.948  -0.002  -0.003  -0.006  -0.001  -0.013   0.005   0.001   0.004  -0.002  -0.005  -0.002  -0.070  -0.011   0.011   0.032
 -0.002   1.948   0.002   0.001  -0.003   0.005  -0.021  -0.000  -0.002   0.005   0.010   0.001  -0.039   0.017  -0.006   0.018
 -0.003   0.002   1.948  -0.009  -0.002   0.001  -0.000  -0.010   0.008  -0.001   0.005   0.003  -0.012  -0.063   0.038   0.004
 -0.006   0.001  -0.009   1.953   0.003   0.004  -0.002   0.008  -0.015  -0.003   0.000   0.000  -0.009  -0.073  -0.013   0.000
 -0.001  -0.003  -0.002   0.003   1.949  -0.002   0.005  -0.001  -0.003  -0.012   0.003   0.004  -0.018   0.013  -0.061   0.008
 -0.013   0.005   0.001   0.004  -0.002   0.009   0.003   0.001   0.000   0.001  -0.004   0.001  -0.024  -0.000   0.002   0.001
  0.005  -0.021  -0.000  -0.002   0.005   0.003   0.006  -0.000  -0.000   0.001  -0.006   0.001  -0.014   0.003  -0.001   0.001
  0.001  -0.000  -0.010   0.008  -0.001   0.001  -0.000   0.007   0.002  -0.002  -0.009   0.001  -0.002  -0.013   0.011   0.000
  0.004  -0.002   0.008  -0.015  -0.003   0.000  -0.000   0.002   0.008   0.001   0.021  -0.004  -0.001  -0.018  -0.008  -0.000
 -0.002   0.005  -0.001  -0.003  -0.012   0.001   0.001  -0.002   0.001   0.007   0.010  -0.003  -0.007   0.002  -0.017   0.000
 -0.005   0.010   0.005   0.000   0.003  -0.004  -0.006  -0.009   0.021   0.010   1.661  -0.090   0.053  -0.135  -0.242  -0.006
 -0.002   0.001   0.003   0.000   0.004   0.001   0.001   0.001  -0.004  -0.003  -0.090   0.010  -0.005   0.014   0.025   0.000
 -0.070  -0.039  -0.012  -0.009  -0.018  -0.024  -0.014  -0.002  -0.001  -0.007   0.053  -0.005   0.100  -0.004  -0.001  -0.006
 -0.011   0.017  -0.063  -0.073   0.013  -0.000   0.003  -0.013  -0.018   0.002  -0.135   0.014  -0.004   0.078   0.012   0.001
  0.011  -0.006   0.038  -0.013  -0.061   0.002  -0.001   0.011  -0.008  -0.017  -0.242   0.025  -0.001   0.012   0.094   0.001
  0.032   0.018   0.004   0.000   0.008   0.001   0.001   0.000  -0.000   0.000  -0.006   0.000  -0.006   0.001   0.001   0.001
  0.000  -0.006   0.021   0.031  -0.001  -0.000  -0.000   0.001   0.001  -0.000   0.017  -0.001   0.001  -0.006  -0.002  -0.000
 -0.006   0.001  -0.018   0.016   0.030  -0.000   0.000  -0.001   0.001   0.001   0.030  -0.002   0.001  -0.002  -0.009  -0.000
 total augmentation occupancy for first ion, spin component:           2
  0.011   0.009   0.002   0.003   0.004  -0.003  -0.002  -0.001  -0.001  -0.001   0.000  -0.000   0.016   0.003   0.002   0.001
  0.009   0.006   0.002   0.002   0.003  -0.003  -0.001  -0.000  -0.001  -0.001   0.000  -0.000   0.012   0.002   0.002   0.001
  0.002   0.002   0.000   0.001   0.001  -0.001  -0.000  -0.000  -0.000   0.000  -0.000  -0.000   0.003   0.001  -0.000   0.000
  0.003   0.002   0.001   0.001   0.001  -0.001  -0.001  -0.000  -0.000  -0.000  -0.001   0.001   0.004   0.001   0.001   0.000
  0.004   0.003   0.001   0.001   0.001  -0.001  -0.001   0.000  -0.000   0.000  -0.001   0.000   0.006   0.001   0.000   0.000
 -0.003  -0.003  -0.001  -0.001  -0.001   0.001   0.001   0.000   0.000   0.000   0.000  -0.000  -0.004  -0.001  -0.001  -0.000
 -0.002  -0.001  -0.000  -0.001  -0.001   0.001   0.000   0.000   0.000   0.000   0.001  -0.000  -0.003  -0.001  -0.000  -0.000
 -0.001  -0.000  -0.000  -0.000   0.000   0.000   0.000   0.000   0.000   0.000  -0.001   0.000  -0.001  -0.000  -0.000  -0.000
 -0.001  -0.001  -0.000  -0.000  -0.000   0.000   0.000   0.000   0.000   0.000   0.000  -0.000  -0.001  -0.000  -0.000  -0.000
 -0.001  -0.001   0.000  -0.000   0.000   0.000   0.000   0.000   0.000   0.000  -0.002   0.000  -0.002  -0.000  -0.000  -0.000
  0.000   0.000  -0.000  -0.001  -0.001   0.000   0.001  -0.001   0.000  -0.002   0.002  -0.001  -0.000   0.001   0.001  -0.000
 -0.000  -0.000  -0.000   0.001   0.000  -0.000  -0.000   0.000  -0.000   0.000  -0.001   0.000   0.000   0.000   0.000  -0.000
  0.016   0.012   0.003   0.004   0.006  -0.004  -0.003  -0.001  -0.001  -0.002  -0.000   0.000   0.022   0.004   0.003   0.000
  0.003   0.002   0.001   0.001   0.001  -0.001  -0.001  -0.000  -0.000  -0.000   0.001   0.000   0.004   0.001   0.000   0.000
  0.002   0.002  -0.000   0.001   0.000  -0.001  -0.000  -0.000  -0.000  -0.000   0.001   0.000   0.003   0.000   0.000   0.000
  0.001   0.001   0.000   0.000   0.000  -0.000  -0.000  -0.000  -0.000  -0.000  -0.000  -0.000   0.000   0.000   0.000   0.000
  0.000   0.000   0.000   0.000  -0.000   0.000   0.000  -0.000  -0.000  -0.000   0.000  -0.000  -0.000  -0.000   0.000   0.000
  0.000   0.000  -0.000   0.000  -0.000   0.000   0.000  -0.000  -0.000  -0.000   0.000  -0.000  -0.000   0.000   0.000   0.000


------------------------ aborting loop because EDIFF is reached ----------------------------------------


 


 total charge     
 
# of ion     s       p       d       tot
----------------------------------------
  1        0.481   0.142   9.272   9.895
  2        0.456   0.285   9.217   9.958
  3        0.470   0.200   9.254   9.925
  4        0.448   0.212   9.251   9.911
  5        0.456   0.302   9.216   9.974
  6        0.484   0.121   9.279   9.884
  7        0.449   0.273   9.223   9.945
  8        0.447   0.245   9.236   9.927
  9        0.449   0.265   9.229   9.943
 10        0.487   0.136   9.275   9.899
 11        0.438   0.350   9.240  10.028
 12        0.461   0.212   9.251   9.924
 13        0.471   0.210   9.243   9.924
 14        0.449   0.250   9.240   9.939
 15        0.461   0.328   9.207   9.995
 16        0.457   0.271   9.220   9.948
 17        0.448   0.265   9.232   9.946
 18        0.449   0.220   9.250   9.920
 19        0.439   0.278   9.224   9.942
 20        0.466   0.211   9.247   9.924
 21        0.483   0.130   9.281   9.894
------------------------------------------------
tot        9.650   4.906 194.088 208.645
 


 magnetization (x)
 
# of ion     s       p       d       tot
----------------------------------------
  1        0.000   0.015   0.022   0.037
  2        0.001   0.014  -0.003   0.012
  3        0.002   0.010   0.014   0.025
  4        0.012   0.005   0.004   0.022
[...]
  1.100   0.006   0.009   0.003  -0.003   6.239  -0.003  -0.006
  0.006   1.093  -0.001  -0.011  -0.001  -0.003   6.242   0.001
  0.009  -0.001   1.109   0.011  -0.008  -0.006   0.001   6.233
  0.003  -0.011   0.011   1.112   0.007  -0.002   0.007  -0.007
 -0.003  -0.001  -0.008   0.007   1.108   0.002   0.001   0.004
 -0.002   0.000  -0.000   0.002   0.001   0.001  -0.001  -0.001
 -0.004   0.000  -0.000   0.003   0.002   0.001  -0.002  -0.001
  0.019   0.011   0.002  -0.000   0.003  -0.011  -0.007  -0.001
 -0.000  -0.002   0.011   0.017   0.000   0.000   0.001  -0.006
 -0.002  -0.000  -0.011   0.012   0.017   0.001   0.000   0.006
  0.020   0.012   0.002  -0.000   0.003  -0.010  -0.007  -0.001
 -0.000  -0.002   0.011   0.018   0.000   0.000   0.000  -0.004
 -0.002  -0.000  -0.011   0.013   0.018   0.001   0.000   0.006
 total augmentation occupancy for first ion, spin component:           1
  1.948  -0.002  -0.003  -0.006  -0.001  -0.013   0.005   0.001   0.004  -0.002  -0.005  -0.002  -0.071  -0.011   0.011   0.033
 -0.002   1.948   0.003   0.002  -0.003   0.005  -0.021  -0.001  -0.002   0.004   0.010   0.001  -0.038   0.017  -0.006   0.018
 -0.003   0.003   1.949  -0.009  -0.002   0.001  -0.001  -0.010   0.008  -0.001   0.004   0.003  -0.010  -0.061   0.037   0.004
 -0.006   0.002  -0.009   1.953   0.003   0.004  -0.002   0.008  -0.015  -0.003   0.000   0.000  -0.009  -0.074  -0.012   0.000
 -0.001  -0.003  -0.002   0.003   1.949  -0.002   0.004  -0.001  -0.003  -0.011   0.005   0.004  -0.015   0.013  -0.061   0.007
 -0.013   0.005   0.001   0.004  -0.002   0.009   0.003   0.001   0.000   0.001  -0.004   0.001  -0.025  -0.000   0.002   0.001
  0.005  -0.021  -0.001  -0.002   0.004   0.003   0.006  -0.000  -0.000   0.001  -0.006   0.001  -0.014   0.003  -0.001   0.001
  0.001  -0.001  -0.010   0.008  -0.001   0.001  -0.000   0.007   0.002  -0.002  -0.010   0.001  -0.002  -0.012   0.011   0.000
  0.004  -0.002   0.008  -0.015  -0.003   0.000  -0.000   0.002   0.008   0.001   0.021  -0.004  -0.001  -0.018  -0.008   0.000
 -0.002   0.004  -0.001  -0.003  -0.011   0.001   0.001  -0.002   0.001   0.007   0.011  -0.003  -0.006   0.002  -0.017   0.000
 -0.005   0.010   0.004   0.000   0.005  -0.004  -0.006  -0.010   0.021   0.011   1.664  -0.091   0.049  -0.131  -0.246  -0.006
 -0.002   0.001   0.003   0.000   0.004   0.001   0.001   0.001  -0.004  -0.003  -0.091   0.010  -0.005   0.014   0.026   0.000
 -0.071  -0.038  -0.010  -0.009  -0.015  -0.025  -0.014  -0.002  -0.001  -0.006   0.049  -0.005   0.101  -0.003  -0.000  -0.006
 -0.011   0.017  -0.061  -0.074   0.013  -0.000   0.003  -0.012  -0.018   0.002  -0.131   0.014  -0.003   0.077   0.012   0.000
  0.011  -0.006   0.037  -0.012  -0.061   0.002  -0.001   0.011  -0.008  -0.017  -0.246   0.026  -0.000   0.012   0.095   0.001
  0.033   0.018   0.004   0.000   0.007   0.001   0.001   0.000   0.000   0.000  -0.006   0.000  -0.006   0.000   0.001   0.001
  0.000  -0.006   0.020   0.031  -0.001   0.000  -0.000   0.001   0.001  -0.000   0.016  -0.001   0.000  -0.006  -0.002  -0.000
 -0.005   0.001  -0.018   0.016   0.030  -0.000   0.000  -0.001   0.001   0.001   0.030  -0.003   0.001  -0.002  -0.009  -0.000
 total augmentation occupancy for first ion, spin component:           2
  0.011   0.009   0.003   0.003   0.004  -0.003  -0.002  -0.001  -0.001  -0.001  -0.000  -0.000   0.016   0.003   0.002   0.001
  0.009   0.006   0.002   0.002   0.003  -0.003  -0.001  -0.001  -0.001  -0.001  -0.000  -0.000   0.012   0.002   0.001   0.001
  0.003   0.002   0.000   0.001   0.001  -0.001  -0.000  -0.000  -0.000   0.000  -0.001  -0.000   0.004   0.001  -0.000   0.000
  0.003   0.002   0.001   0.001   0.001  -0.001  -0.001  -0.000  -0.000  -0.000  -0.001   0.001   0.005   0.001   0.001   0.000
  0.004   0.003   0.001   0.001   0.001  -0.001  -0.001   0.000  -0.000   0.000  -0.001   0.000   0.005   0.001   0.000   0.000
 -0.003  -0.003  -0.001  -0.001  -0.001   0.001   0.001   0.000   0.000   0.000   0.000  -0.000  -0.004  -0.001  -0.000  -0.000
 -0.002  -0.001  -0.000  -0.001  -0.001   0.001   0.000   0.000   0.000   0.000   0.001  -0.000  -0.003  -0.001  -0.000  -0.000
 -0.001  -0.001  -0.000  -0.000   0.000   0.000   0.000   0.000   0.000   0.000  -0.001   0.000  -0.001  -0.000  -0.000  -0.000
 -0.001  -0.001  -0.000  -0.000  -0.000   0.000   0.000   0.000   0.000   0.000   0.000  -0.000  -0.001  -0.000  -0.000  -0.000
 -0.001  -0.001   0.000  -0.000   0.000   0.000   0.000   0.000   0.000   0.000  -0.001   0.000  -0.001  -0.000  -0.000  -0.000
 -0.000  -0.000  -0.001  -0.001  -0.001   0.000   0.001  -0.001   0.000  -0.001   0.002  -0.001  -0.001   0.001   0.001  -0.000
 -0.000  -0.000  -0.000   0.001   0.000  -0.000  -0.000   0.000  -0.000   0.000  -0.001   0.000  -0.000   0.000   0.000  -0.000
  0.016   0.012   0.004   0.005   0.005  -0.004  -0.003  -0.001  -0.001  -0.001  -0.001  -0.000   0.022   0.004   0.002   0.000
  0.003   0.002   0.001   0.001   0.001  -0.001  -0.001  -0.000  -0.000  -0.000   0.001   0.000   0.004   0.001   0.000   0.000
  0.002   0.001  -0.000   0.001   0.000  -0.000  -0.000  -0.000  -0.000  -0.000   0.001   0.000   0.002   0.000   0.000   0.000
  0.001   0.001   0.000   0.000   0.000  -0.000  -0.000  -0.000  -0.000  -0.000  -0.000  -0.000   0.000   0.000   0.000   0.000
  0.000   0.000   0.000   0.000  -0.000   0.000   0.000  -0.000  -0.000  -0.000   0.000  -0.000  -0.000  -0.000   0.000   0.000
  0.000   0.000  -0.000   0.000  -0.000   0.000   0.000  -0.000  -0.000  -0.000   0.000  -0.000  -0.000   0.000   0.000   0.000


------------------------ aborting loop because EDIFF is reached ----------------------------------------


 


 total charge     
 
# of ion     s       p       d       tot
----------------------------------------
  1        0.482   0.143   9.271   9.897
  2        0.455   0.288   9.216   9.959
  3        0.469   0.194   9.257   9.920
  4        0.448   0.212   9.252   9.912
  5        0.455   0.294   9.220   9.970
  6        0.483   0.123   9.279   9.886
  7        0.448   0.274   9.224   9.946
  8        0.445   0.244   9.237   9.927
  9        0.449   0.269   9.227   9.945
 10        0.486   0.135   9.277   9.898
 11        0.447   0.369   9.234  10.050
 12        0.459   0.212   9.253   9.924
 13        0.469   0.206   9.244   9.919
 14        0.445   0.245   9.243   9.933
 15        0.464   0.343   9.203  10.010
 16        0.460   0.290   9.215   9.965
 17        0.444   0.257   9.236   9.937
 18        0.449   0.216   9.253   9.918
 19        0.437   0.279   9.225   9.941
 20        0.464   0.208   9.249   9.921
 21        0.481   0.129   9.283   9.893
------------------------------------------------
tot        9.640   4.931 194.100 208.672
 


 magnetization (x)
 
# of ion     s       p       d       tot
----------------------------------------
  1        0.000   0.015   0.022   0.037
  2        0.001   0.014  -0.004   0.012
  3        0.002   0.010   0.015   0.027
  4        0.012   0.005   0.004   0.021
  5        0.003   0.008   0.008   0.020
  6        0.060   0.003  -0.003   0.060
  7        0.001   0.005  -0.002   0.004
  8        0.011   0.009   0.001   0.021
  9        0.005   0.005   0.008   0.018
 10       -0.000  -0.000   0.004   0.004
 11        0.003  -0.001   0.031   0.032
 12       -0.000   0.009   0.009   0.018
 13        0.063   0.008   0.001   0.072
 14       -0.000   0.006   0.009   0.014
 15        0.000   0.001   0.023   0.024
 16        0.002   0.005   0.001   0.007
 17        0.003   0.008   0.003   0.014
 18       -0.000   0.006   0.009   0.015
 19        0.003   0.010  -0.003   0.009
 20        0.003   0.015   0.006   0.025
 21        0.017   0.000   0.003   0.020
------------------------------------------------
tot        0.188   0.141   0.144   0.474
 
    CHARGE:  cpu time    0.2310: real time    0.2314
    FORLOC:  cpu time    0.0359: real time    0.0359
    FORNL :  cpu time    3.1308: real time    3.1324
    STRESS:  cpu time    3.1318: real time    3.1666
    FORCOR:  cpu time    0.5127: real time    0.5129
    FORHAR:  cpu time    0.0843: real time    0.0843
    MIXING:  cpu time    0.0144: real time    0.0144
    OFIELD:  cpu time    0.0001: real time    0.0001

  FORCE on cell =-STRESS in cart. coord.  units (eV):
  Direction    XX          YY          ZZ          XY          YZ          ZX
  --------------------------------------------------------------------------------------
  Alpha Z    31.43481    31.43481    31.43481
  Ewald   16686.14799 19908.51273 15991.46892   595.10466   255.56643   144.26275
  Hartree 25582.65360 28558.58374 24970.99911   535.95307   226.40866   109.31557
  E(xc)   -1348.16183 -1347.73609 -1348.31503     0.09850     0.04631     0.08427
  Local  -44330.55797-50525.54959-43024.73552 -1130.67180  -479.96605  -251.48242
  n-local  -496.03670  -495.20474  -495.76089    -0.06306     0.06440    -0.03089
  augment  1973.87236  1971.47803  1974.12810    -0.14327    -1.09912    -1.04827
  Kinetic  1894.30706  1892.30440  1894.75039    -0.25640    -1.07118    -1.20640
  Fock        0.00000     0.00000     0.00000     0.00000     0.00000     0.00000
  -------------------------------------------------------------------------------------
  Total      -6.34068    -6.17671    -6.03011     0.02169    -0.05055    -0.10539
  in kB      -0.99016    -0.96456    -0.94166     0.00339    -0.00789    -0.01646
  external pressure =       -0.97 kB  Pullay stress =        0.00 kB


 VOLUME and BASIS-vectors are now :
 -----------------------------------------------------------------------------
  energy-cutoff  :      295.45
  volume of cell :    10259.82
      direct lattice vectors                 reciprocal lattice vectors
    21.729345206  0.000000000  0.000000000     0.046020715  0.000000000  0.000000000
     0.000000000 21.729345206  0.000000000     0.000000000  0.046020715  0.000000000
     0.000000000  0.000000000 21.729345206     0.000000000  0.000000000  0.046020715

  length of vectors
    21.729345206 21.729345206 21.729345206     0.046020715  0.046020715  0.046020715


 FORCES acting on ions
    electron-ion (+dipol)            ewald-force                    non-local-force                 convergence-correction
 -----------------------------------------------------------------------------------------------
   -.151E+04 0.227E+03 -.810E+03   0.150E+04 -.226E+03 0.805E+03   0.889E+01 -.180E+01 0.487E+01   0.330E-01 -.492E-01 -.178E-01
   -.148E+04 0.257E+03 0.402E+03   0.148E+04 -.257E+03 -.403E+03   0.200E+01 0.573E-01 0.767E+00   -.850E-01 0.992E-01 0.779E-01
   -.994E+03 0.409E+02 0.144E+04   0.989E+03 -.404E+02 -.144E+04   0.468E+01 -.516E+00 -.647E+01   -.534E-01 -.598E-02 0.225E-01
   -.131E+04 -.961E+03 -.502E+03   0.131E+04 0.957E+03 0.500E+03   0.467E+01 0.465E+01 0.139E+01   0.360E-01 -.903E-01 -.222E-01
   -.801E+03 -.890E+03 0.955E+03   0.800E+03 0.888E+03 -.954E+03   0.113E+01 0.213E+01 -.696E+00   0.182E-01 0.171E-02 -.846E-01
   -.496E+03 -.162E+04 0.873E+02   0.493E+03 0.161E+04 -.878E+02   0.273E+01 0.993E+01 0.486E+00   -.758E-02 0.144E-01 0.124E-01
   -.510E+03 -.218E+03 -.156E+04   0.508E+03 0.217E+03 0.155E+04   0.185E+01 0.598E+00 0.390E+01   -.379E-01 -.504E-01 -.102E+00
   -.943E+03 0.132E+04 -.638E+03   0.941E+03 -.131E+04 0.636E+03   0.210E+01 -.497E+01 0.206E+01   -.664E-01 0.194E-01 0.188E-01
   -.606E+03 0.135E+04 0.731E+03   0.605E+03 -.135E+04 -.728E+03   0.122E+01 -.312E+01 -.258E+01   -.298E-01 0.728E-01 0.346E-01
   0.252E+03 0.714E+03 0.154E+04   -.250E+03 -.709E+03 -.153E+04   -.236E+01 -.450E+01 -.893E+01   0.363E-01 -.128E-01 -.654E-01
   0.103E+03 0.221E+03 -.101E+03   -.102E+03 -.219E+03 0.100E+03   -.724E+00 -.113E+01 0.623E+00   -.483E-01 0.229E-01 0.105E+00
   0.290E+03 0.897E+03 -.155E+04   -.289E+03 -.893E+03 0.155E+04   -.569E+00 -.335E+01 0.568E+01   0.150E-01 -.438E-01 0.502E-01
   0.347E+03 0.176E+04 -.197E+03   -.346E+03 -.175E+04 0.196E+03   -.850E+00 -.603E+01 0.599E-01   -.609E-01 0.800E-01 -.301E-01
   0.122E+04 0.913E+03 0.831E+03   -.121E+04 -.910E+03 -.829E+03   -.426E+01 -.324E+01 -.227E+01   0.926E-01 0.856E-01 0.419E-01
   0.320E+01 -.112E+04 -.769E+03   -.240E+01 0.112E+04 0.770E+03   -.815E+00 0.117E+01 -.124E+01   0.174E-01 -.549E-01 -.927E-01
   0.547E+03 -.401E+03 0.138E+04   -.548E+03 0.402E+03 -.138E+04   0.390E-01 -.106E+01 -.218E+01   0.340E-01 -.289E-01 0.220E-01
   0.931E+03 -.365E+03 -.143E+04   -.928E+03 0.364E+03 0.143E+04   -.254E+01 0.132E+01 0.474E+01   -.702E-02 -.211E-01 -.342E-02
   0.669E+03 -.133E+04 0.871E+03   -.666E+03 0.133E+04 -.868E+03   -.249E+01 0.494E+01 -.342E+01   -.319E-02 -.147E-01 -.361E-01
   0.157E+04 -.340E+03 0.372E+03   -.157E+04 0.339E+03 -.371E+03   -.391E+01 0.138E+01 -.872E+00   0.370E-01 -.207E-02 0.379E-01
   0.157E+04 0.740E+03 -.526E+03   -.156E+04 -.736E+03 0.525E+03   -.563E+01 -.324E+01 0.156E+01   -.102E-02 0.309E-01 0.651E-01
   0.115E+04 -.119E+04 -.534E+03   -.114E+04 0.118E+04 0.530E+03   -.611E+01 0.772E+01 0.351E+01   0.283E-01 -.346E-01 0.459E-01
 -----------------------------------------------------------------------------------------------
   0.964E+00 -.980E+00 -.109E+01   0.318E-11 0.000E+00 -.455E-12   -.942E+00 0.932E+00 0.984E+00   -.528E-01 0.182E-01 0.800E-01
 
 
 POSITION                                       TOTAL-FORCE (eV/Angst)
 -----------------------------------------------------------------------------------
     14.09775     10.41860     12.63557         0.006887     -0.010806      0.001314
     13.11068     10.44935     10.45187        -0.010064      0.008957      0.010636
     12.39849     10.52106      8.12310        -0.007584     -0.001473      0.003522
     13.18668     12.56095     11.75214         0.007683     -0.011478     -0.003224
     12.03622     12.45413      9.57682        -0.000671      0.006083     -0.008319
     11.88200     14.57275     10.65728         0.002193     -0.001446     -0.001700
     11.82191     10.99540     13.11655        -0.001919     -0.006494     -0.011903
     12.32977      8.77240     12.01206        -0.008873     -0.000087      0.001781
     11.56995      8.71847      9.55141        -0.001888      0.010380      0.002936
     10.44105      9.17146      7.45788         0.009449     -0.004685     -0.013989
     10.57323     10.29304     11.13962        -0.006842      0.002500      0.008919
     10.23271      9.13094     13.35903        -0.001127     -0.013509      0.008597
     10.12602      7.79468     11.32015        -0.011890      0.010672     -0.005658
      9.06995      9.16595      9.52027         0.012731      0.012137      0.001183
     10.77974     12.79154     11.79685         0.006684     -0.001037     -0.005936
     10.15361     11.19837      8.72431        -0.003133     -0.000158     -0.003930
      9.25878     11.36003     12.96785         0.000538     -0.002006     -0.000210
      9.78956     13.45927      9.72404         0.000502     -0.000334     -0.004838
      8.52476     11.47363     10.54296         0.005126      0.002966      0.001078
      8.30019      9.38120     11.85985        -0.003009      0.003663      0.008755
      8.47508     13.47491     11.86853         0.005206     -0.003844      0.010986
 -----------------------------------------------------------------------------------
    total drift:                               -0.030981     -0.030277     -0.023812


--------------------------------------------------------------------------------------------------------



  FREE ENERGIE OF THE ION-ELECTRON SYSTEM (eV)
  ---------------------------------------------------
  free  energy   TOTEN  =       -58.16989283 eV

  energy  without entropy=      -58.16989283  energy(sigma->0) =      -58.16989283
 
 d Force = 0.4090780E-03[ 0.317E-03, 0.501E-03]  d Energy = 0.4025007E-03 0.658E-05
 d Force =-0.1214002E+02[-0.121E+02,-0.121E+02]  d Ewald  =-0.1214002E+02 0.131E-06


--------------------------------------------------------------------------------------------------------


    POTLOK:  cpu time    0.5122: real time    0.5128


--------------------------------------------------------------------------------------------------------


 Conjugate gradient step on ions:
 trial-energy change:   -0.000403  1 .order   -0.000409   -0.000501   -0.000317
  (g-gl).g = 0.494E-04      g.g   = 0.317E-03  gl.gl    = 0.668E-03
 g(Force)  = 0.317E-03   g(Stress)= 0.000E+00 ortho     = 0.445E-04
 gamma     =   0.07394
 trial     =   1.56715
 opt step  =   4.25584  (harmonic =   4.25584) maximal distance =0.00459832
 next E    =   -58.170171   (d E  =  -0.00068)


--------------------------------------------------------------------------------------------------------


  
 reached required accuracy - stopping structural energy minimisation
     LOOP+:  cpu time   33.0118: real time   33.1126
    4ORBIT:  cpu time    0.0000: real time    0.0000
 


 total charge     
 
# of ion     s       p       d       tot
----------------------------------------
  1        0.482   0.143   9.271   9.897
  2        0.455   0.288   9.216   9.959
  3        0.469   0.194   9.257   9.920
  4        0.448   0.212   9.252   9.912
  5        0.455   0.294   9.220   9.970
  6        0.483   0.123   9.279   9.886
  7        0.448   0.274   9.224   9.946
  8        0.445   0.244   9.237   9.927
  9        0.449   0.269   9.227   9.945
 10        0.486   0.135   9.277   9.898
 11        0.447   0.369   9.234  10.050
 12        0.459   0.212   9.253   9.924
 13        0.469   0.206   9.244   9.919
 14        0.445   0.245   9.243   9.933
 15        0.464   0.343   9.203  10.010
 16        0.460   0.290   9.215   9.965
 17        0.444   0.257   9.236   9.937
 18        0.449   0.216   9.253   9.918
 19        0.437   0.279   9.225   9.941
 20        0.464   0.208   9.249   9.921
 21        0.481   0.129   9.283   9.893
------------------------------------------------
tot        9.640   4.931 194.100 208.672
 


 magnetization (x)
 
# of ion     s       p       d       tot
----------------------------------------
  1        0.000   0.015   0.022   0.037
  2        0.001   0.014  -0.004   0.012
  3        0.002   0.010   0.015   0.027
  4        0.012   0.005   0.004   0.021
  5        0.003   0.008   0.008   0.020
  6        0.060   0.003  -0.003   0.060
  7        0.001   0.005  -0.002   0.004
  8        0.011   0.009   0.001   0.021
  9        0.005   0.005   0.008   0.018
 10       -0.000  -0.000   0.004   0.004
 11        0.003  -0.001   0.031   0.032
 12       -0.000   0.009   0.009   0.018
 13        0.063   0.008   0.001   0.072
 14       -0.000   0.006   0.009   0.014
 15        0.000   0.001   0.023   0.024
 16        0.002   0.005   0.001   0.007
 17        0.003   0.008   0.003   0.014
 18       -0.000   0.006   0.009   0.015
 19        0.003   0.010  -0.003   0.009
 20        0.003   0.015   0.006   0.025
 21        0.017   0.000   0.003   0.020
------------------------------------------------
tot        0.188   0.141   0.144   0.474
 

 total amount of memory used by VASP on root node    94806. kBytes
========================================================================

   base      :      30000. kBytes
   nonl-proj :       4728. kBytes
   fftplans  :      13160. kBytes
   grid      :      33251. kBytes
   one-center:         62. kBytes
   wavefun   :      13605. kBytes
 
  
  
 General timing and accounting informations for this job:
 ========================================================
  
                  Total CPU time used (sec):     1906.359
                            User time (sec):     1871.840
                          System time (sec):       34.519
                         Elapsed time (sec):     1912.875
  
                   Maximum memory used (kb):      177480.
                   Average memory used (kb):           0.
  
                          Minor page faults:      4390259
                          Major page faults:            0
                 Voluntary context switches:         7920
