 vasp.5.4.1 05Feb16 (build Apr 11 2020 03:28:46) gamma-only                     
  
 executed on           IFC91_ompi date 2022.05.23  10:06:17
 running on   24 total cores
 distrk:  each k-point on   24 cores,    1 groups
 distr:  one band on NCORES_PER_BAND=   6 cores,    4 groups


--------------------------------------------------------------------------------------------------------


 INCAR:
 POTCAR:    PAW_PBE Cu 22Jun2005                  
 POTCAR:    PAW_PBE Cu 22Jun2005                  
   VRHFIN =Cu: d10 p1                                                           
   LEXCH  = PE                                                                  
   EATOM  =  1390.9808 eV,  102.2342 Ry                                         
                                                                                
   TITEL  = PAW_PBE Cu 22Jun2005                                                
   LULTRA =        F    use ultrasoft PP ?                                      
   IUNSCR =        1    unscreen: 0-lin 1-nonlin 2-no                           
   RPACOR =    2.000    partial core radius                                     
   POMASS =   63.546; ZVAL   =   11.000    mass and valenz                      
   RCORE  =    2.300    outmost cutoff radius                                   
   RWIGS  =    2.200; RWIGS  =    1.164    wigner-seitz radius (au A)           
   ENMAX  =  295.446; ENMIN  =  221.585 eV                                      
   ICORE  =        3    local potential                                         
   LCOR   =        T    correct aug charges                                     
   LPAW   =        T    paw PP                                                  
   EAUG   =  586.980                                                            
   DEXC   =    0.000                                                            
   RMAX   =    2.344    core radius for proj-oper                               
   RAUG   =    1.300    factor for augmentation sphere                          
   RDEP   =    2.302    radius for radial grids                                 
   RDEPT  =    1.771    core radius for aug-charge                              
                                                                                
   Atomic configuration                                                         
    9 entries                                                                   
     n  l   j            E        occ.                                          
     1  0  0.50     -8850.2468   2.0000                                         
     2  0  0.50     -1062.3498   2.0000                                         
     2  1  1.50      -916.8226   6.0000                                         
     3  0  0.50      -114.6929   2.0000                                         
     3  1  1.50       -72.1325   6.0000                                         
     3  2  2.50        -5.0394  10.0000                                         
     4  0  0.50        -4.6097   1.0000                                         
     4  1  0.50        -4.0817   0.0000                                         
     4  3  2.50        -1.3606   0.0000                                         
   Description                                                                  
     l       E           TYP  RCUT    TYP  RCUT                                 
     2     -5.0393973     23  2.200                                             
     2     10.8846608     23  2.200                                             
     0     -4.6097109     23  2.200                                             
     0      8.2520465     23  2.200                                             
     1     -2.7211652     23  2.200                                             
     1     21.7055443     23  2.200                                             
     3      2.7211652     23  2.300                                             
  local pseudopotential read in
  partial core-charges read in
  partial kinetic energy density read in
  atomic valenz-charges read in
  non local Contribution for L=           2  read in
    real space projection operators read in
  non local Contribution for L=           2  read in
    real space projection operators read in
  non local Contribution for L=           0  read in
    real space projection operators read in
  non local Contribution for L=           0  read in
    real space projection operators read in
  non local Contribution for L=           1  read in
    real space projection operators read in
  non local Contribution for L=           1  read in
    real space projection operators read in
    PAW grid and wavefunctions read in
 
   number of l-projection  operators is LMAX  =           6
   number of lm-projection operators is LMMAX =          18
 

 ----------------------------------------------------------------------------- 
|                                                                             |
|  ADVICE TO THIS USER RUNNING 'VASP/VAMP'   (HEAR YOUR MASTER'S VOICE ...):  |
|                                                                             |
|      You have a (more or less) 'large supercell' and for larger cells       |
|      it might be more efficient to use real space projection opertators     |
|      So try LREAL= Auto  in the INCAR   file.                               |
|      Mind: At the moment your POTCAR file does not contain real space       |
|       projectors, and has to be modified,  BUT if you                       |
|      want to do an extremely  accurate calculation you might also keep the  |
|      reciprocal projection scheme          (i.e. LREAL=.FALSE.)             |
|                                                                             |
 ----------------------------------------------------------------------------- 

  PAW_PBE Cu 22Jun2005                  :
 energy of atom  1       EATOM=-1390.9808
 kinetic energy error for atom=    0.0452 (will be added to EATOM!!)
 
 
 POSCAR: Unknown Structure <s> Cu </s>           
  positions in direct lattice
  velocities in cartesian coordinates
 exchange correlation table for  LEXCH =        8
   RHO(1)=    0.500       N(1)  =     2000
   RHO(2)=  100.500       N(2)  =     4000
 


--------------------------------------------------------------------------------------------------------


 ion  position               nearest neighbor table
   1  0.397  0.634  0.403-   5 2.38   3 2.40   4 2.53   2 2.56
   2  0.391  0.512  0.397-   7 2.43   5 2.47   8 2.47   3 2.47   1 2.56   6 2.58
   3  0.401  0.571  0.498-   1 2.40  10 2.42   9 2.44   7 2.46   4 2.47   2 2.47   5 2.55
   4  0.477  0.659  0.489-   5 2.39   3 2.47  10 2.47   1 2.53  12 2.53
   5  0.491  0.572  0.417-   1 2.38   4 2.39  16 2.41   2 2.47  11 2.49   8 2.50  12 2.54   3 2.55

   6  0.401  0.390  0.402-   7 2.38   8 2.42  13 2.49   2 2.58
   7  0.410  0.454  0.495-   6 2.38   9 2.42   2 2.43  13 2.43  15 2.45   3 2.46  11 2.62
   8  0.494  0.456  0.387-   6 2.42  11 2.43   2 2.47  13 2.49  18 2.49   5 2.50  16 2.59
   9  0.398  0.508  0.596-   7 2.42  17 2.43  15 2.44   3 2.44  10 2.44
  10  0.489  0.577  0.572-   3 2.42  14 2.44   9 2.44  17 2.46  12 2.46   4 2.47  11 2.63
  11  0.529  0.489  0.493-  12 2.42   8 2.43  20 2.46  14 2.47   5 2.49  18 2.49  13 2.50  16 2.51
                            19 2.52  15 2.55   7 2.62  10 2.63
  12  0.578  0.593  0.497-  11 2.42  10 2.46  19 2.50  16 2.50   4 2.53   5 2.54  14 2.65
  13  0.494  0.377  0.475-   7 2.43   8 2.49   6 2.49  11 2.50  18 2.50  15 2.52  20 2.57
  14  0.583  0.513  0.594-  10 2.44  17 2.45  11 2.47  21 2.47  19 2.48  20 2.49  12 2.65
  15  0.480  0.426  0.584-  21 2.41  17 2.44   9 2.44   7 2.45  20 2.48  13 2.52  11 2.55
  16  0.595  0.527  0.400-   5 2.41  19 2.42  18 2.44  12 2.50  11 2.51   8 2.59
  17  0.491  0.507  0.666-   9 2.43  15 2.44  14 2.45  10 2.46  21 2.46
  18  0.597  0.415  0.430-  16 2.44  20 2.46  11 2.49   8 2.49  19 2.50  13 2.50
  19  0.649  0.498  0.497-  16 2.42  14 2.48  12 2.50  18 2.50  11 2.52  20 2.55
  20  0.589  0.404  0.547-  21 2.45  11 2.46  18 2.46  15 2.48  14 2.49  19 2.55  13 2.57
  21  0.565  0.417  0.660-  15 2.41  20 2.45  17 2.46  14 2.47
 

IMPORTANT INFORMATION: All symmetrisations will be switched off!
NOSYMM: (Re-)initialisation of all symmetry stuff for point group C_1.

 
 
 KPOINTS: Gamma only                              
  k-points in reciprocal lattice
Space group operators:
 irot       det(A)        alpha          n_x          n_y          n_z        tau_x        tau_y        tau_z
    1     1.000000     0.000000     1.000000     0.000000     0.000000     0.000000     0.000000     0.000000


--------------------------------------------------------------------------------------------------------




 Dimension of arrays:
   k-points           NKPTS =      1   k-points in BZ     NKDIM =      1   number of bands    NBANDS=    172
   number of dos      NEDOS =    301   number of ions     NIONS =     21
   non local maximal  LDIM  =      6   non local SUM 2l+1 LMDIM =     18
   total plane-waves  NPLWV = 729000
   max r-space proj   IRMAX =      1   max aug-charges    IRDMAX=   2482
   dimension x,y,z NGX =    90 NGY =   90 NGZ =   90
   dimension x,y,z NGXF=   180 NGYF=  180 NGZF=  180
   support grid    NGXF=   180 NGYF=  180 NGZF=  180
   ions per type =              21
 NGX,Y,Z   is equivalent  to a cutoff of   7.13,  7.13,  7.13 a.u.
 NGXF,Y,Z  is equivalent  to a cutoff of  14.26, 14.26, 14.26 a.u.


 I would recommend the setting:
   dimension x,y,z NGX =    88 NGY =   88 NGZ =   88
 SYSTEM =  unknown system                          
 POSCAR =  Unknown Structure <s> Cu </s>           

 Startparameter for this run:
   NWRITE =      2    write-flag & timer
   PREC   = normal    normal or accurate (medium, high low for compatibility)
   ISTART =      0    job   : 0-new  1-cont  2-samecut
   ICHARG =      2    charge: 1-file 2-atom 10-const
   ISPIN  =      2    spin polarized calculation?
   LNONCOLLINEAR =      F non collinear calculations
   LSORBIT =      F    spin-orbit coupling
   INIWAV =      1    electr: 0-lowe 1-rand  2-diag
   LASPH  =      F    aspherical Exc in radial PAW
   METAGGA=      F    non-selfconsistent MetaGGA calc.

 Electronic Relaxation 1
   ENCUT  =  295.4 eV  21.71 Ry    4.66 a.u.  29.42 29.42 29.42*2*pi/ulx,y,z
   ENINI  =  295.4     initial cutoff
   ENAUG  =  587.0 eV  augmentation charge cutoff
   NELM   =     60;   NELMIN=  2; NELMDL=  0     # of ELM steps 
   EDIFF  = 0.1E-05   stopping-criterion for ELM
   LREAL  =      F    real-space projection
   NLSPLINE    = F    spline interpolate recip. space projectors
   LCOMPAT=      F    compatible to vasp.4.4
   GGA_COMPAT  = T    GGA compatible to vasp.4.4-vasp.4.6
   LMAXPAW     = -100 max onsite density
   LMAXMIX     =    2 max onsite mixed and CHGCAR
   VOSKOWN=      0    Vosko Wilk Nusair interpolation
   ROPT   =    0.00000
 Ionic relaxation
   EDIFFG = -.3E-01   stopping-criterion for IOM
   NSW    =   1000    number of steps for IOM
   NBLOCK =      1;   KBLOCK =   1000    inner block; outer block 
   IBRION =      2    ionic relax: 0-MD 1-quasi-New 2-CG
   NFREE  =      1    steps in history (QN), initial steepest desc. (CG)
   ISIF   =      2    stress and relaxation
   IWAVPR =     11    prediction:  0-non 1-charg 2-wave 3-comb
   ISYM   =      0    0-nonsym 1-usesym 2-fastsym
   LCORR  =      T    Harris-Foulkes like correction to forces

   POTIM  = 0.5000    time-step for ionic-motion
   TEIN   =    0.0    initial temperature
   TEBEG  =    0.0;   TEEND  =   0.0 temperature during run
   SMASS  =  -3.00    Nose mass-parameter (am)
   estimated Nose-frequenzy (Omega)   =  0.10E-29 period in steps =****** mass=  -0.101E-25a.u.
   SCALEE = 1.0000    scale energy and forces
   NPACO  =    256;   APACO  = 16.0  distance and # of slots for P.C.
   PSTRESS=    0.0 pullay stress

  Mass of Ions in am
   POMASS =  63.55
  Ionic Valenz
   ZVAL   =  11.00
  Atomic Wigner-Seitz radii
   RWIGS  =  -1.00
  virtual crystal weights 
   VCA    =   1.00
   NELECT =     231.0000    total number of electrons
   NUPDOWN=      -1.0000    fix difference up-down

 DOS related values:
   EMIN   =  10.00;   EMAX   =-10.00  energy-range for DOS
   EFERMI =   0.00
   ISMEAR =     0;   SIGMA  =   0.00  broadening in eV -4-tet -1-fermi 0-gaus

 Electronic relaxation 2 (details)
   IALGO  =     68    algorithm
   LDIAG  =      T    sub-space diagonalisation (order eigenvalues)
   LSUBROT=      F    optimize rotation matrix (better conditioning)
   TURBO    =      0    0=normal 1=particle mesh
   IRESTART =      0    0=no restart 2=restart with 2 vectors
   NREBOOT  =      0    no. of reboots
   NMIN     =      0    reboot dimension
   EREF     =   0.00    reference energy to select bands
   IMIX   =      4    mixing-type and parameters
     AMIX     =   0.20;   BMIX     =  0.00
     AMIX_MAG =   0.80;   BMIX_MAG =  0.00
     AMIN     =   0.10
     WC   =   100.;   INIMIX=   1;  MIXPRE=   1;  MAXMIX= -45

 Intra band minimization:
   WEIMIN = 0.0010     energy-eigenvalue tresh-hold
   EBREAK =  0.15E-08  absolut break condition
   DEPER  =   0.30     relativ break condition  

   TIME   =   0.40     timestep for ELM

  volume/ion in A,a.u.               =     440.40      2971.93
  Fermi-wavevector in a.u.,A,eV,Ry     =   0.478547  0.904323  3.115836  0.229007
  Thomas-Fermi vector in A             =   1.475082
 
 Write flags
   LWAVE  =      F    write WAVECAR
   LCHARG =      F    write CHGCAR
   LVTOT  =      F    write LOCPOT, total local potential
   LVHAR  =      F    write LOCPOT, Hartree potential only
   LELF   =      F    write electronic localiz. function (ELF)
   LORBIT =     11    0 simple, 1 ext, 2 COOP (PROOUT)


 Dipole corrections
   LMONO  =      F    monopole corrections only (constant potential shift)
   LDIPOL =      F    correct potential (dipole corrections)
   IDIPOL =      0    1-x, 2-y, 3-z, 4-all directions 
   EPSILON=  1.0000000 bulk dielectric constant

 Exchange correlation treatment:
   GGA     =    PE    GGA type
   LEXCH   =     8    internal setting for exchange type
   VOSKOWN=      0    Vosko Wilk Nusair interpolation
   LHFCALC =     F    Hartree Fock is set to
   LHFONE  =     F    Hartree Fock one center treatment
   AEXX    =    0.0000 exact exchange contribution

 Linear response parameters
   LEPSILON=     F    determine dielectric tensor
   LRPA    =     F    only Hartree local field effects (RPA)
   LNABLA  =     F    use nabla operator in PAW spheres
   LVEL    =     F    velocity operator in full k-point grid
   LINTERFAST=   F  fast interpolation
   KINTER  =     0    interpolate to denser k-point grid
   CSHIFT  =0.1000    complex shift for real part using Kramers Kronig
   OMEGAMAX=  -1.0    maximum frequency
   DEG_THRESHOLD= 0.2000000E-02 threshold for treating states as degnerate
   RTIME   =    0.100 relaxation time in fs

 Orbital magnetization related:
   ORBITALMAG=     F  switch on orbital magnetization
   LCHIMAG   =     F  perturbation theory with respect to B field
   DQ        =  0.001000  dq finite difference perturbation B field



--------------------------------------------------------------------------------------------------------


 conjugate gradient relaxation of ions
 charge density and potential will be updated during run
 spin polarized calculation
 RMM-DIIS sequential band-by-band and
  variant of blocked Davidson during initial phase
 perform sub-space diagonalisation
    before iterative eigenvector-optimisation
 modified Broyden-mixing scheme, WC =      100.0
 initial mixing is a Kerker type mixing with AMIX =  0.2000 and BMIX =      0.0001
 Hartree-type preconditioning will be used
 using additional bands           56
 reciprocal scheme for non local part
 use partial core corrections
 calculate Harris-corrections to forces 
   (improved forces if not selfconsistent)
 use gradient corrections 
 use of overlap-Matrix (Vanderbilt PP)
 Gauss-broadening in eV      SIGMA  =   0.00


--------------------------------------------------------------------------------------------------------


  energy-cutoff  :      295.45
  volume of cell :     9248.30
      direct lattice vectors                 reciprocal lattice vectors
    20.990397470  0.000000000  0.000000000     0.047640832  0.000000000  0.000000000
     0.000000000 20.990397470  0.000000000     0.000000000  0.047640832  0.000000000
     0.000000000  0.000000000 20.990397470     0.000000000  0.000000000  0.047640832

  length of vectors
    20.990397470 20.990397470 20.990397470     0.047640832  0.047640832  0.047640832


 
 k-points in units of 2pi/SCALE and weight: Gamma only                              
   0.00000000  0.00000000  0.00000000       1.000
 
 k-points in reciprocal lattice and weights: Gamma only                              
   0.00000000  0.00000000  0.00000000       1.000
 
 position of ions in fractional coordinates (direct lattice) 
   0.39697461  0.63385436  0.40268364
   0.39143473  0.51208171  0.39659819
   0.40060311  0.57084377  0.49818724
   0.47738800  0.65925391  0.48867904
   0.49055599  0.57179980  0.41679429
   0.40127231  0.38963656  0.40212948
   0.40954403  0.45395918  0.49514984
   0.49441764  0.45631212  0.38740683
   0.39842391  0.50843615  0.59632751
   0.48903644  0.57731782  0.57213044
   0.52932596  0.48911175  0.49264135
   0.57804148  0.59344438  0.49748339
   0.49385881  0.37691292  0.47534031
   0.58314592  0.51267609  0.59449927
   0.47963323  0.42612337  0.58409048
   0.59470533  0.52704978  0.39997996
   0.49108587  0.50747943  0.66601056
   0.59724700  0.41462247  0.42992499
   0.64901537  0.49803515  0.49723523
   0.58929854  0.40439766  0.54656242
   0.56499173  0.41665162  0.66014553
 
 position of ions in cartesian coordinates  (Angst):
   8.33265487 13.30485493  8.45248974
   8.21637054 10.74879853  8.32475360
   8.40881847 11.98223760 10.45714819
  10.02056378 13.83800166 10.25756719
  10.29696513 12.00230512  8.74867788
   8.42286526  8.17862621  8.44085769
   8.59649207  9.52878365 10.39339185
  10.37802288  9.57817277  8.13182342
   8.36307626 10.67227690 12.51715154
  10.26506925 12.11813060 12.00924529
  11.11076238 10.26665010 10.34073778
  12.13332034 12.45663338 10.44237400
  10.36629263  7.91155201  9.97758213
  12.24046454 10.76127492 12.47877591
  10.06769217  8.94449886 12.26029134
  12.48310132 11.06298430  8.39573843
  10.30808759 10.65219489 13.97982647
  12.53645183  8.70309037  9.02429640
  13.62309055 10.45395582 10.43716513
  12.36961049  8.48846772 11.47256237
  11.85940108  8.74568309 13.85671708
 


--------------------------------------------------------------------------------------------------------


 use parallel FFT for wavefunctions z direction half grid
 k-point  1 :   0.0000 0.0000 0.0000  plane waves:   53216

 maximum and minimum number of plane-waves per node :      8873     8867

 maximum number of plane-waves:     53216
 maximum index in each direction: 
   IXMAX=   29   IYMAX=   29   IZMAX=   29
   IXMIN=  -29   IYMIN=  -29   IZMIN=    0

 WARNING: aliasing errors must be expected set NGX to 118 to avoid them
 WARNING: aliasing errors must be expected set NGY to 118 to avoid them
 WARNING: aliasing errors must be expected set NGZ to 118 to avoid them
 aliasing errors are usually negligible using standard VASP settings
 and one can safely disregard these warnings

 parallel 3D FFT for wavefunctions:
    minimum data exchange during FFTs selected (reduces bandwidth)
 parallel 3D FFT for charge:
    minimum data exchange during FFTs selected (reduces bandwidth)


 total amount of memory used by VASP on root node    86417. kBytes
========================================================================

   base      :      30000. kBytes
   nonl-proj :       4256. kBytes
   fftplans  :      11262. kBytes
   grid      :      28586. kBytes
   one-center:         62. kBytes
   wavefun   :      12251. kBytes
 
     INWAV:  cpu time    0.0000: real time    0.0000
 Broyden mixing: mesh for mixing (old mesh)
   NGX = 59   NGY = 59   NGZ = 59
  (NGX  =180   NGY  =180   NGZ  =180)
  gives a total of 205379 points

 initial charge density was supplied:
 charge density of overlapping atoms calculated
 number of electron     231.0000000 magnetization      63.0000000
 keeping initial charge density in first step


--------------------------------------------------------------------------------------------------------


 Maximum index for augmentation-charges          208 (set IRDMAX)


--------------------------------------------------------------------------------------------------------


 First call to EWALD:  gamma=   0.084
 Maximum number of real-space cells 3x 3x 3
 Maximum number of reciprocal cells 3x 3x 3

 FEWALD executed in parallel
    FEWALD:  cpu time    0.0042: real time    0.0042


----------------------------------------- Iteration    1(   1)  ---------------------------------------


    POTLOK:  cpu time    0.8301: real time    0.8364
    SETDIJ:  cpu time    0.0173: real time    0.0188
     EDDAV:  cpu time    7.0870: real time    7.1079
       DOS:  cpu time    0.0003: real time    0.0003
    --------------------------------------------
      LOOP:  cpu time    7.9423: real time    7.9808

 eigenvalue-minimisations  :   704
 total energy-change (2. order) : 0.1485440E+04  (-0.4711293E+04)
 number of electron     231.0000000 magnetization      63.0000000
 augmentation part      231.0000000 magnetization      63.0000000

 Free energy of the ion-electron system (eV)
  ---------------------------------------------------
  alpha Z        PSCENC =        34.87296113
  Ewald energy   TEWEN  =     50737.39207516
  -Hartree energ DENC   =    -77362.48331261
  -exchange      EXHF   =         0.00000000
  -V(xc)+E(xc)   XCENC  =       966.76979628
  PAW double counting   =     25771.56077586   -27990.81341399
  entropy T*S    EENTRO =         0.00000000
  eigenvalues    EBANDS =       118.49419046
  atomic energy  EATOM  =     29209.64727781
  Solvation  Ediel_sol  =         0.00000000
  ---------------------------------------------------
  free energy    TOTEN  =      1485.44035010 eV

  energy without entropy =     1485.44035010  energy(sigma->0) =     1485.44035010


--------------------------------------------------------------------------------------------------------




----------------------------------------- Iteration    1(   2)  ---------------------------------------


     EDDAV:  cpu time    7.2149: real time    7.2337
       DOS:  cpu time    0.0002: real time    0.0002
    --------------------------------------------
      LOOP:  cpu time    7.2201: real time    7.2427

 eigenvalue-minimisations  :   728
 total energy-change (2. order) :-0.1374091E+04  (-0.1207585E+04)
 number of electron     231.0000000 magnetization      63.0000000
 augmentation part      231.0000000 magnetization      63.0000000

 Free energy of the ion-electron system (eV)
  ---------------------------------------------------
  alpha Z        PSCENC =        34.87296113
  Ewald energy   TEWEN  =     50737.39207516
  -Hartree energ DENC   =    -77362.48331261
  -exchange      EXHF   =         0.00000000
  -V(xc)+E(xc)   XCENC  =       966.76979628
  PAW double counting   =     25771.56077586   -27990.81341399
  entropy T*S    EENTRO =         0.00000000
  eigenvalues    EBANDS =     -1255.59728045
  atomic energy  EATOM  =     29209.64727781
  Solvation  Ediel_sol  =         0.00000000
  ---------------------------------------------------
  free energy    TOTEN  =       111.34887919 eV

  energy without entropy =      111.34887919  energy(sigma->0) =      111.34887919


--------------------------------------------------------------------------------------------------------




----------------------------------------- Iteration    1(   3)  ---------------------------------------


     EDDAV:  cpu time    8.1438: real time    8.1655
       DOS:  cpu time    0.0002: real time    0.0002
    --------------------------------------------
      LOOP:  cpu time    8.1487: real time    8.1744

 eigenvalue-minimisations  :   856
 total energy-change (2. order) :-0.1404824E+03  (-0.1335092E+03)
 number of electron     231.0000000 magnetization      63.0000000
 augmentation part      231.0000000 magnetization      63.0000000

 Free energy of the ion-electron system (eV)
  ---------------------------------------------------
  alpha Z        PSCENC =        34.87296113
  Ewald energy   TEWEN  =     50737.39207516
  -Hartree energ DENC   =    -77362.48331261
  -exchange      EXHF   =         0.00000000
  -V(xc)+E(xc)   XCENC  =       966.76979628
  PAW double counting   =     25771.56077586   -27990.81341399
  entropy T*S    EENTRO =         0.00000000
  eigenvalues    EBANDS =     -1396.07966360
  atomic energy  EATOM  =     29209.64727781
  Solvation  Ediel_sol  =         0.00000000
  ---------------------------------------------------
  free energy    TOTEN  =       -29.13350396 eV

  energy without entropy =      -29.13350396  energy(sigma->0) =      -29.13350396


--------------------------------------------------------------------------------------------------------




----------------------------------------- Iteration    1(   4)  ---------------------------------------


     EDDAV:  cpu time    8.1416: real time    8.1665
       DOS:  cpu time    0.0002: real time    0.0002
    --------------------------------------------
      LOOP:  cpu time    8.1464: real time    8.1755

 eigenvalue-minimisations  :   848
 total energy-change (2. order) :-0.9765718E+01  (-0.9199862E+01)
 number of electron     231.0000000 magnetization      63.0000000
 augmentation part      231.0000000 magnetization      63.0000000

 Free energy of the ion-electron system (eV)
  ---------------------------------------------------
  alpha Z        PSCENC =        34.87296113
  Ewald energy   TEWEN  =     50737.39207516
  -Hartree energ DENC   =    -77362.48331261
  -exchange      EXHF   =         0.00000000
  -V(xc)+E(xc)   XCENC  =       966.76979628
  PAW double counting   =     25771.56077586   -27990.81341399
  entropy T*S    EENTRO =         0.00000000
  eigenvalues    EBANDS =     -1405.84538197
  atomic energy  EATOM  =     29209.64727781
  Solvation  Ediel_sol  =         0.00000000
  ---------------------------------------------------
  free energy    TOTEN  =       -38.89922233 eV

  energy without entropy =      -38.89922233  energy(sigma->0) =      -38.89922233


--------------------------------------------------------------------------------------------------------




----------------------------------------- Iteration    1(   5)  ---------------------------------------


     EDDAV:  cpu time    8.3996: real time    9.4010
       DOS:  cpu time    0.0002: real time    0.0002
    CHARGE:  cpu time    0.3108: real time    0.3109
    MIXING:  cpu time    0.0175: real time    0.0175
    --------------------------------------------
      LOOP:  cpu time    8.7334: real time    9.7383

 eigenvalue-minimisations  :   888
 total energy-change (2. order) :-0.3319874E+00  (-0.3313752E+00)
 number of electron     231.0000661 magnetization      24.6000053
 augmentation part      135.7618263 magnetization      20.9428889

 Broyden mixing:
  rms(total) = 0.80077E+01    rms(broyden)= 0.80060E+01
  rms(prec ) = 0.81229E+01
  weight for this iteration     100.00

 Free energy of the ion-electron system (eV)
  ---------------------------------------------------
  alpha Z        PSCENC =        34.87296113
  Ewald energy   TEWEN  =     50737.39207516
  -Hartree energ DENC   =    -77362.48331261
  -exchange      EXHF   =         0.00000000
  -V(xc)+E(xc)   XCENC  =       966.76979628
  PAW double counting   =     25771.56077586   -27990.81341399
  entropy T*S    EENTRO =        -0.00000000
  eigenvalues    EBANDS =     -1406.17736937
  atomic energy  EATOM  =     29209.64727781
  Solvation  Ediel_sol  =         0.00000000
  ---------------------------------------------------
  free energy    TOTEN  =       -39.23120973 eV

  energy without entropy =      -39.23120973  energy(sigma->0) =      -39.23120973


--------------------------------------------------------------------------------------------------------




----------------------------------------- Iteration    1(   6)  ---------------------------------------


    POTLOK:  cpu time    0.8212: real time    0.8332
    SETDIJ:  cpu time    0.0173: real time    0.0188
    EDDIAG:  cpu time    0.9653: real time    0.9664
  RMM-DIIS:  cpu time    5.7740: real time    5.7849
    ORTHCH:  cpu time    0.0917: real time    0.0923
       DOS:  cpu time    0.0003: real time    0.0003
    CHARGE:  cpu time    0.3095: real time    0.3096
    MIXING:  cpu time    0.0178: real time    0.0179
    --------------------------------------------
      LOOP:  cpu time    8.0034: real time    8.0330

 eigenvalue-minimisations  :   689
 total energy-change (2. order) :-0.1704009E+02  (-0.8489995E+01)
 number of electron     231.0000687 magnetization       0.3023041
 augmentation part      150.1457215 magnetization       1.2885943

 Broyden mixing:
  rms(total) = 0.37891E+01    rms(broyden)= 0.37875E+01
  rms(prec ) = 0.38262E+01
  weight for this iteration     100.00

 eigenvalues of (default mixing * dielectric matrix)
  average eigenvalue GAMMA=   1.6653
  1.6653

 Free energy of the ion-electron system (eV)
  ---------------------------------------------------
  alpha Z        PSCENC =        34.87296113
  Ewald energy   TEWEN  =     50737.39207516
  -Hartree energ DENC   =    -77004.74038409
  -exchange      EXHF   =         0.00000000
  -V(xc)+E(xc)   XCENC  =       932.23411900
  PAW double counting   =     25775.74329177   -27938.17000445
  entropy T*S    EENTRO =         0.00000000
  eigenvalues    EBANDS =     -1803.25063804
  atomic energy  EATOM  =     29209.64727781
  Solvation  Ediel_sol  =         0.00000000
  ---------------------------------------------------
  free energy    TOTEN  =       -56.27130171 eV

  energy without entropy =      -56.27130171  energy(sigma->0) =      -56.27130171


--------------------------------------------------------------------------------------------------------




----------------------------------------- Iteration    1(   7)  ---------------------------------------


    POTLOK:  cpu time    0.8412: real time    0.8429
    SETDIJ:  cpu time    0.0177: real time    0.0189
    EDDIAG:  cpu time    0.9610: real time    0.9627
  RMM-DIIS:  cpu time    5.5554: real time    5.5716
    ORTHCH:  cpu time    0.0865: real time    0.0865
       DOS:  cpu time    0.0003: real time    0.0003
    CHARGE:  cpu time    0.3077: real time    0.3082
    MIXING:  cpu time    0.0188: real time    0.0188
    --------------------------------------------
      LOOP:  cpu time    7.7953: real time    7.8204

 eigenvalue-minimisations  :   690
 total energy-change (2. order) :-0.2584224E+01  (-0.1937447E+01)
 number of electron     231.0000678 magnetization      -0.2764658
 augmentation part      147.5957695 magnetization      -0.4871913

 Broyden mixing:
  rms(total) = 0.60031E+00    rms(broyden)= 0.59963E+00
  rms(prec ) = 0.71282E+00
  weight for this iteration     100.00

 eigenvalues of (default mixing * dielectric matrix)
  average eigenvalue GAMMA=   1.1589
  0.8603  1.4574

 Free energy of the ion-electron system (eV)
  ---------------------------------------------------
  alpha Z        PSCENC =        34.87296113
  Ewald energy   TEWEN  =     50737.39207516
  -Hartree energ DENC   =    -77275.00226997
  -exchange      EXHF   =         0.00000000
  -V(xc)+E(xc)   XCENC  =       932.42619511
  PAW double counting   =     26252.52428887   -28460.06604533
  entropy T*S    EENTRO =         0.00000000
  eigenvalues    EBANDS =     -1490.65000891
  atomic energy  EATOM  =     29209.64727781
  Solvation  Ediel_sol  =         0.00000000
  ---------------------------------------------------
  free energy    TOTEN  =       -58.85552613 eV

  energy without entropy =      -58.85552613  energy(sigma->0) =      -58.85552613


--------------------------------------------------------------------------------------------------------




----------------------------------------- Iteration    1(   8)  ---------------------------------------


    POTLOK:  cpu time    0.8293: real time    0.8305
    SETDIJ:  cpu time    0.0169: real time    0.0169
    EDDIAG:  cpu time    0.9622: real time    0.9656
  RMM-DIIS:  cpu time    5.8103: real time    5.8322
    ORTHCH:  cpu time    0.0861: real time    0.0861
       DOS:  cpu time    0.0003: real time    0.0003
    CHARGE:  cpu time    0.3041: real time    0.3046
    MIXING:  cpu time    0.0192: real time    0.0192
    --------------------------------------------
      LOOP:  cpu time    8.0354: real time    8.0664

 eigenvalue-minimisations  :   690
 total energy-change (2. order) : 0.2308637E+00  (-0.4157194E+00)
 number of electron     231.0000681 magnetization       0.2268974
 augmentation part      147.8860370 magnetization      -0.3436011

 Broyden mixing:
  rms(total) = 0.40651E+00    rms(broyden)= 0.40610E+00
  rms(prec ) = 0.50252E+00
  weight for this iteration     100.00

 eigenvalues of (default mixing * dielectric matrix)
  average eigenvalue GAMMA=   0.9585
  1.4523  0.8446  0.5784

 Free energy of the ion-electron system (eV)
  ---------------------------------------------------
  alpha Z        PSCENC =        34.87296113
  Ewald energy   TEWEN  =     50737.39207516
  -Hartree energ DENC   =    -77290.64864569
  -exchange      EXHF   =         0.00000000
  -V(xc)+E(xc)   XCENC  =       931.64932855
  PAW double counting   =     26450.90908083   -28667.53883151
  entropy T*S    EENTRO =         0.00000000
  eigenvalues    EBANDS =     -1464.90790873
  atomic energy  EATOM  =     29209.64727781
  Solvation  Ediel_sol  =         0.00000000
  ---------------------------------------------------
  free energy    TOTEN  =       -58.62466245 eV

  energy without entropy =      -58.62466245  energy(sigma->0) =      -58.62466245


--------------------------------------------------------------------------------------------------------




----------------------------------------- Iteration    1(   9)  ---------------------------------------


    POTLOK:  cpu time    0.8288: real time    0.8292
    SETDIJ:  cpu time    0.0170: real time    0.0170
    EDDIAG:  cpu time    0.9629: real time    0.9642
  RMM-DIIS:  cpu time    5.7734: real time    5.7906
    ORTHCH:  cpu time    0.0865: real time    0.0865
       DOS:  cpu time    0.0003: real time    0.0003
    CHARGE:  cpu time    0.3040: real time    0.3040
    MIXING:  cpu time    0.0204: real time    0.0204
    --------------------------------------------
      LOOP:  cpu time    8.0002: real time    8.0229

 eigenvalue-minimisations  :   690
 total energy-change (2. order) : 0.4337719E+00  (-0.6373535E-01)
 number of electron     231.0000682 magnetization       0.7919950
 augmentation part      148.0594762 magnetization       0.1060578

 Broyden mixing:
  rms(total) = 0.17880E+00    rms(broyden)= 0.17864E+00
  rms(prec ) = 0.19177E+00
  weight for this iteration     100.00

 eigenvalues of (default mixing * dielectric matrix)
  average eigenvalue GAMMA=   1.0783
  1.6716  1.0652  1.0652  0.5111

 Free energy of the ion-electron system (eV)
  ---------------------------------------------------
  alpha Z        PSCENC =        34.87296113
  Ewald energy   TEWEN  =     50737.39207516
  -Hartree energ DENC   =    -77283.83900537
  -exchange      EXHF   =         0.00000000
  -V(xc)+E(xc)   XCENC  =       931.34195226
  PAW double counting   =     26532.61645516   -28753.02862901
  entropy T*S    EENTRO =         0.00000000
  eigenvalues    EBANDS =     -1467.19397770
  atomic energy  EATOM  =     29209.64727781
  Solvation  Ediel_sol  =         0.00000000
  ---------------------------------------------------
  free energy    TOTEN  =       -58.19089056 eV

  energy without entropy =      -58.19089056  energy(sigma->0) =      -58.19089056


--------------------------------------------------------------------------------------------------------




----------------------------------------- Iteration    1(  10)  ---------------------------------------


    POTLOK:  cpu time    0.8255: real time    0.8273
    SETDIJ:  cpu time    0.0170: real time    0.0170
    EDDIAG:  cpu time    0.9614: real time    0.9622
  RMM-DIIS:  cpu time    5.8043: real time    5.8229
    ORTHCH:  cpu time    0.0851: real time    0.0851
       DOS:  cpu time    0.0003: real time    0.0003
    CHARGE:  cpu time    0.3030: real time    0.3030
    MIXING:  cpu time    0.0216: real time    0.0216
    --------------------------------------------
      LOOP:  cpu time    8.0252: real time    8.0503

 eigenvalue-minimisations  :   691
 total energy-change (2. order) : 0.3503579E-01  (-0.1422338E-01)
 number of electron     231.0000683 magnetization       1.0433132
 augmentation part      148.0389078 magnetization       0.2402659

 Broyden mixing:
  rms(total) = 0.12085E+00    rms(broyden)= 0.12084E+00
  rms(prec ) = 0.12982E+00
  weight for this iteration     100.00

 eigenvalues of (default mixing * dielectric matrix)
  average eigenvalue GAMMA=   1.1539
  2.2770  1.2636  1.0303  0.6892  0.5097

 Free energy of the ion-electron system (eV)
  ---------------------------------------------------
  alpha Z        PSCENC =        34.87296113
  Ewald energy   TEWEN  =     50737.39207516
  -Hartree energ DENC   =    -77281.14347655
  -exchange      EXHF   =         0.00000000
  -V(xc)+E(xc)   XCENC  =       931.01032028
  PAW double counting   =     26709.20317214   -28938.83770700
  entropy T*S    EENTRO =         0.00000000
  eigenvalues    EBANDS =     -1460.30047773
  atomic energy  EATOM  =     29209.64727781
  Solvation  Ediel_sol  =         0.00000000
  ---------------------------------------------------
  free energy    TOTEN  =       -58.15585476 eV

  energy without entropy =      -58.15585476  energy(sigma->0) =      -58.15585476


--------------------------------------------------------------------------------------------------------




----------------------------------------- Iteration    1(  11)  ---------------------------------------


    POTLOK:  cpu time    0.8224: real time    0.8231
    SETDIJ:  cpu time    0.0171: real time    0.0171
    EDDIAG:  cpu time    0.9721: real time    0.9744
  RMM-DIIS:  cpu time    5.5612: real time    5.5793
    ORTHCH:  cpu time    0.0894: real time    0.0903
       DOS:  cpu time    0.0002: real time    0.0002
    CHARGE:  cpu time    0.3109: real time    0.3111
    MIXING:  cpu time    0.0240: real time    0.0240
    --------------------------------------------
      LOOP:  cpu time    7.8040: real time    7.8304

 eigenvalue-minimisations  :   689
 total energy-change (2. order) : 0.2502849E-01  (-0.5985735E-02)
 number of electron     231.0000682 magnetization       1.0208954
 augmentation part      148.0383604 magnetization       0.1404312

 Broyden mixing:
  rms(total) = 0.74713E-01    rms(broyden)= 0.74703E-01
  rms(prec ) = 0.79413E-01
  weight for this iteration     100.00

 eigenvalues of (default mixing * dielectric matrix)
  average eigenvalue GAMMA=   1.2483
  2.8126  1.2751  1.2751  0.5061  0.8104  0.8104

 Free energy of the ion-electron system (eV)
  ---------------------------------------------------
  alpha Z        PSCENC =        34.87296113
  Ewald energy   TEWEN  =     50737.39207516
  -Hartree energ DENC   =    -77275.51051015
  -exchange      EXHF   =         0.00000000
  -V(xc)+E(xc)   XCENC  =       930.60455939
  PAW double counting   =     26905.47095484   -29145.10185081
  entropy T*S    EENTRO =         0.00000000
  eigenvalues    EBANDS =     -1455.50629365
  atomic energy  EATOM  =     29209.64727781
  Solvation  Ediel_sol  =         0.00000000
  ---------------------------------------------------
  free energy    TOTEN  =       -58.13082628 eV

  energy without entropy =      -58.13082628  energy(sigma->0) =      -58.13082628


--------------------------------------------------------------------------------------------------------




----------------------------------------- Iteration    1(  12)  ---------------------------------------


    POTLOK:  cpu time    0.8314: real time    0.8335
    SETDIJ:  cpu time    0.0173: real time    0.0189
    EDDIAG:  cpu time    0.9609: real time    0.9630
  RMM-DIIS:  cpu time    5.7224: real time    5.7401
    ORTHCH:  cpu time    0.0846: real time    0.0851
       DOS:  cpu time    0.0003: real time    0.0003
    CHARGE:  cpu time    0.3060: real time    0.3060
    MIXING:  cpu time    0.0244: real time    0.0244
    --------------------------------------------
      LOOP:  cpu time    7.9538: real time    7.9813

 eigenvalue-minimisations  :   690
 total energy-change (2. order) : 0.5027703E-02  (-0.1533355E-02)
 number of electron     231.0000682 magnetization       0.9885928
 augmentation part      148.0437466 magnetization       0.1011465

 Broyden mixing:
  rms(total) = 0.48494E-01    rms(broyden)= 0.48488E-01
  rms(prec ) = 0.52635E-01
  weight for this iteration     100.00

 eigenvalues of (default mixing * dielectric matrix)
  average eigenvalue GAMMA=   1.3926
  3.8879  1.6594  1.3005  0.8890  0.8890  0.5019  0.6206

 Free energy of the ion-electron system (eV)
  ---------------------------------------------------
  alpha Z        PSCENC =        34.87296113
  Ewald energy   TEWEN  =     50737.39207516
  -Hartree energ DENC   =    -77274.01819258
  -exchange      EXHF   =         0.00000000
  -V(xc)+E(xc)   XCENC  =       930.30882281
  PAW double counting   =     27032.85759010   -29278.75196265
  entropy T*S    EENTRO =        -0.00000000
  eigenvalues    EBANDS =     -1450.43437035
  atomic energy  EATOM  =     29209.64727781
  Solvation  Ediel_sol  =         0.00000000
  ---------------------------------------------------
  free energy    TOTEN  =       -58.12579857 eV

  energy without entropy =      -58.12579857  energy(sigma->0) =      -58.12579857


--------------------------------------------------------------------------------------------------------




----------------------------------------- Iteration    1(  13)  ---------------------------------------


    POTLOK:  cpu time    0.8253: real time    0.8260
    SETDIJ:  cpu time    0.0171: real time    0.0171
    EDDIAG:  cpu time    0.9930: real time    1.0027
  RMM-DIIS:  cpu time    5.7802: real time    5.7998
    ORTHCH:  cpu time    0.0864: real time    0.0869
       DOS:  cpu time    0.0003: real time    0.0003
    CHARGE:  cpu time    0.3050: real time    0.3050
    MIXING:  cpu time    0.0259: real time    0.0259
    --------------------------------------------
      LOOP:  cpu time    8.0401: real time    8.0746

 eigenvalue-minimisations  :   690
 total energy-change (2. order) : 0.2531416E-02  (-0.5114052E-03)
 number of electron     231.0000682 magnetization       0.9814615
 augmentation part      148.0608452 magnetization       0.1077451

 Broyden mixing:
  rms(total) = 0.24462E-01    rms(broyden)= 0.24455E-01
  rms(prec ) = 0.26405E-01
  weight for this iteration     100.00

 eigenvalues of (default mixing * dielectric matrix)
  average eigenvalue GAMMA=   1.4345
  4.5937  1.8454  1.2704  1.0735  0.8682  0.7809  0.5081  0.5359

 Free energy of the ion-electron system (eV)
  ---------------------------------------------------
  alpha Z        PSCENC =        34.87296113
  Ewald energy   TEWEN  =     50737.39207516
  -Hartree energ DENC   =    -77272.58849626
  -exchange      EXHF   =         0.00000000
  -V(xc)+E(xc)   XCENC  =       930.09195732
  PAW double counting   =     27114.54151991   -29364.36127167
  entropy T*S    EENTRO =         0.00000000
  eigenvalues    EBANDS =     -1447.71929055
  atomic energy  EATOM  =     29209.64727781
  Solvation  Ediel_sol  =         0.00000000
  ---------------------------------------------------
  free energy    TOTEN  =       -58.12326716 eV

  energy without entropy =      -58.12326716  energy(sigma->0) =      -58.12326716


--------------------------------------------------------------------------------------------------------




----------------------------------------- Iteration    1(  14)  ---------------------------------------


    POTLOK:  cpu time    0.8274: real time    0.8295
    SETDIJ:  cpu time    0.0171: real time    0.0171
    EDDIAG:  cpu time    0.9623: real time    0.9632
  RMM-DIIS:  cpu time    5.5597: real time    5.5774
    ORTHCH:  cpu time    0.0845: real time    0.0845
       DOS:  cpu time    0.0003: real time    0.0003
    CHARGE:  cpu time    0.3046: real time    0.3054
    MIXING:  cpu time    0.0276: real time    0.0276
    --------------------------------------------
      LOOP:  cpu time    7.7903: real time    7.8156

 eigenvalue-minimisations  :   690
 total energy-change (2. order) : 0.6603844E-03  (-0.2591435E-03)
 number of electron     231.0000682 magnetization       0.9929812
 augmentation part      148.0760355 magnetization       0.1341138

 Broyden mixing:
  rms(total) = 0.84321E-02    rms(broyden)= 0.84290E-02
  rms(prec ) = 0.91892E-02
  weight for this iteration     100.00

 eigenvalues of (default mixing * dielectric matrix)
  average eigenvalue GAMMA=   1.4369
  4.7371  1.9117  1.3564  1.1008  1.1008  0.9387  0.7498  0.5018  0.5350

 Free energy of the ion-electron system (eV)
  ---------------------------------------------------
  alpha Z        PSCENC =        34.87296113
  Ewald energy   TEWEN  =     50737.39207516
  -Hartree energ DENC   =    -77270.66092750
  -exchange      EXHF   =         0.00000000
  -V(xc)+E(xc)   XCENC  =       929.93835080
  PAW double counting   =     27168.29619443   -29420.73042210
  entropy T*S    EENTRO =         0.00000000
  eigenvalues    EBANDS =     -1446.87811650
  atomic energy  EATOM  =     29209.64727781
  Solvation  Ediel_sol  =         0.00000000
  ---------------------------------------------------
  free energy    TOTEN  =       -58.12260677 eV

  energy without entropy =      -58.12260677  energy(sigma->0) =      -58.12260677


--------------------------------------------------------------------------------------------------------




----------------------------------------- Iteration    1(  15)  ---------------------------------------


    POTLOK:  cpu time    0.8344: real time    0.8350
    SETDIJ:  cpu time    0.0168: real time    0.0173
    EDDIAG:  cpu time    0.9613: real time    0.9627
  RMM-DIIS:  cpu time    5.7553: real time    5.7754
    ORTHCH:  cpu time    0.0855: real time    0.0855
       DOS:  cpu time    0.0003: real time    0.0003
    CHARGE:  cpu time    0.3062: real time    0.3063
    MIXING:  cpu time    0.0292: real time    0.0292
    --------------------------------------------
      LOOP:  cpu time    7.9961: real time    8.0225

 eigenvalue-minimisations  :   690
 total energy-change (2. order) : 0.6778532E-04  (-0.3748534E-04)
 number of electron     231.0000682 magnetization       0.9981720
 augmentation part      148.0711519 magnetization       0.1360767

 Broyden mixing:
  rms(total) = 0.55376E-02    rms(broyden)= 0.55367E-02
  rms(prec ) = 0.60646E-02
  weight for this iteration     100.00

 eigenvalues of (default mixing * dielectric matrix)
  average eigenvalue GAMMA=   1.4818
  4.8205  2.5977  1.6396  1.2108  1.1023  0.9245  0.7441  0.7441  0.5016  0.5327

 Free energy of the ion-electron system (eV)
  ---------------------------------------------------
  alpha Z        PSCENC =        34.87296113
  Ewald energy   TEWEN  =     50737.39207516
  -Hartree energ DENC   =    -77270.20642734
  -exchange      EXHF   =         0.00000000
  -V(xc)+E(xc)   XCENC  =       929.92740395
  PAW double counting   =     27175.91300348   -29428.82654690
  entropy T*S    EENTRO =         0.00000000
  eigenvalues    EBANDS =     -1446.84228628
  atomic energy  EATOM  =     29209.64727781
  Solvation  Ediel_sol  =         0.00000000
  ---------------------------------------------------
  free energy    TOTEN  =       -58.12253899 eV

  energy without entropy =      -58.12253899  energy(sigma->0) =      -58.12253899


--------------------------------------------------------------------------------------------------------




----------------------------------------- Iteration    1(  16)  ---------------------------------------


    POTLOK:  cpu time    0.8264: real time    0.8279
    SETDIJ:  cpu time    0.0170: real time    0.0170
    EDDIAG:  cpu time    0.9613: real time    0.9624
  RMM-DIIS:  cpu time    5.7623: real time    5.7798
    ORTHCH:  cpu time    0.0867: real time    0.0867
       DOS:  cpu time    0.0003: real time    0.0003
    CHARGE:  cpu time    0.3041: real time    0.3043
    MIXING:  cpu time    0.0309: real time    0.0309
    --------------------------------------------
      LOOP:  cpu time    7.9958: real time    8.0200

 eigenvalue-minimisations  :   688
 total energy-change (2. order) : 0.5485613E-04  (-0.2299919E-04)
 number of electron     231.0000682 magnetization       1.0002336
 augmentation part      148.0699023 magnetization       0.1370041

 Broyden mixing:
  rms(total) = 0.25347E-02    rms(broyden)= 0.25336E-02
  rms(prec ) = 0.28468E-02
  weight for this iteration     100.00

 eigenvalues of (default mixing * dielectric matrix)
  average eigenvalue GAMMA=   1.5019
  4.9016  3.1818  1.7427  1.2704  1.0365  1.0365  0.9177  0.7575  0.5023  0.5286
  0.6457

 Free energy of the ion-electron system (eV)
  ---------------------------------------------------
  alpha Z        PSCENC =        34.87296113
  Ewald energy   TEWEN  =     50737.39207516
  -Hartree energ DENC   =    -77269.20167236
  -exchange      EXHF   =         0.00000000
  -V(xc)+E(xc)   XCENC  =       929.91464431
  PAW double counting   =     27180.45400094   -29433.69295566
  entropy T*S    EENTRO =         0.00000000
  eigenvalues    EBANDS =     -1447.50881546
  atomic energy  EATOM  =     29209.64727781
  Solvation  Ediel_sol  =         0.00000000
  ---------------------------------------------------
  free energy    TOTEN  =       -58.12248413 eV

  energy without entropy =      -58.12248413  energy(sigma->0) =      -58.12248413


--------------------------------------------------------------------------------------------------------




----------------------------------------- Iteration    1(  17)  ---------------------------------------


    POTLOK:  cpu time    0.8203: real time    0.8260
    SETDIJ:  cpu time    0.0169: real time    0.0169
    EDDIAG:  cpu time    0.9621: real time    0.9634
  RMM-DIIS:  cpu time    5.7732: real time    5.7937
    ORTHCH:  cpu time    0.0906: real time    0.0906
       DOS:  cpu time    0.0003: real time    0.0003
    CHARGE:  cpu time    0.3074: real time    0.3075
    MIXING:  cpu time    0.0352: real time    0.0352
    --------------------------------------------
      LOOP:  cpu time    8.0130: real time    8.0445

 eigenvalue-minimisations  :   701
 total energy-change (2. order) :-0.6081973E-07  (-0.8424497E-05)
 number of electron     231.0000682 magnetization       1.0007950
 augmentation part      148.0697029 magnetization       0.1373661

 Broyden mixing:
  rms(total) = 0.14015E-02    rms(broyden)= 0.14008E-02
  rms(prec ) = 0.16013E-02
  weight for this iteration     100.00

 eigenvalues of (default mixing * dielectric matrix)
  average eigenvalue GAMMA=   1.4933
  4.9135  3.3518  1.8713  1.4202  1.1586  1.1586  0.9141  0.7701  0.7701  0.5017
  0.5608  0.5288

 Free energy of the ion-electron system (eV)
  ---------------------------------------------------
  alpha Z        PSCENC =        34.87296113
  Ewald energy   TEWEN  =     50737.39207516
  -Hartree energ DENC   =    -77268.86719167
  -exchange      EXHF   =         0.00000000
  -V(xc)+E(xc)   XCENC  =       929.90960721
  PAW double counting   =     27181.75502599   -29435.10210075
  entropy T*S    EENTRO =         0.00000000
  eigenvalues    EBANDS =     -1447.73013907
  atomic energy  EATOM  =     29209.64727781
  Solvation  Ediel_sol  =         0.00000000
  ---------------------------------------------------
  free energy    TOTEN  =       -58.12248419 eV

  energy without entropy =      -58.12248419  energy(sigma->0) =      -58.12248419


--------------------------------------------------------------------------------------------------------




----------------------------------------- Iteration    1(  18)  ---------------------------------------


    POTLOK:  cpu time    0.8374: real time    0.8393
    SETDIJ:  cpu time    0.0176: real time    0.0189
    EDDIAG:  cpu time    0.9625: real time    0.9650
  RMM-DIIS:  cpu time    5.6561: real time    5.6723
    ORTHCH:  cpu time    0.0896: real time    0.0906
       DOS:  cpu time    0.0003: real time    0.0003
    CHARGE:  cpu time    0.3113: real time    0.3113
    MIXING:  cpu time    0.0380: real time    0.0380
    --------------------------------------------
      LOOP:  cpu time    7.9194: real time    7.9460

 eigenvalue-minimisations  :   694
 total energy-change (2. order) : 0.2118046E-05  (-0.1654364E-05)
 number of electron     231.0000682 magnetization       1.0003966
 augmentation part      148.0694008 magnetization       0.1368154

 Broyden mixing:
  rms(total) = 0.82144E-03    rms(broyden)= 0.82114E-03
  rms(prec ) = 0.89627E-03
  weight for this iteration     100.00

 eigenvalues of (default mixing * dielectric matrix)
  average eigenvalue GAMMA=   1.5178
  4.8677  3.2824  2.4195  1.7160  1.2386  1.2386  0.9771  0.9215  0.7852  0.7025
  0.5017  0.5306  0.5503

 Free energy of the ion-electron system (eV)
  ---------------------------------------------------
  alpha Z        PSCENC =        34.87296113
  Ewald energy   TEWEN  =     50737.39207516
  -Hartree energ DENC   =    -77268.89458996
  -exchange      EXHF   =         0.00000000
  -V(xc)+E(xc)   XCENC  =       929.90914682
  PAW double counting   =     27181.63830227   -29434.99609285
  entropy T*S    EENTRO =         0.00000000
  eigenvalues    EBANDS =     -1447.69156246
  atomic energy  EATOM  =     29209.64727781
  Solvation  Ediel_sol  =         0.00000000
  ---------------------------------------------------
  free energy    TOTEN  =       -58.12248207 eV

  energy without entropy =      -58.12248207  energy(sigma->0) =      -58.12248207


--------------------------------------------------------------------------------------------------------




----------------------------------------- Iteration    1(  19)  ---------------------------------------


    POTLOK:  cpu time    0.8243: real time    0.8283
    SETDIJ:  cpu time    0.0171: real time    0.0171
    EDDIAG:  cpu time    0.9623: real time    0.9737
  RMM-DIIS:  cpu time    5.8094: real time    5.8175
    ORTHCH:  cpu time    0.0853: real time    0.0855
       DOS:  cpu time    0.0003: real time    0.0003
    CHARGE:  cpu time    0.3038: real time    0.3039
    MIXING:  cpu time    0.0379: real time    0.0379
    --------------------------------------------
      LOOP:  cpu time    8.0474: real time    8.0742

 eigenvalue-minimisations  :   687
 total energy-change (2. order) : 0.1649114E-05  (-0.7957465E-06)
 number of electron     231.0000682 magnetization       1.0001694
 augmentation part      148.0697697 magnetization       0.1364909

 Broyden mixing:
  rms(total) = 0.39621E-03    rms(broyden)= 0.39603E-03
  rms(prec ) = 0.42332E-03
  weight for this iteration     100.00

 eigenvalues of (default mixing * dielectric matrix)
  average eigenvalue GAMMA=   1.5099
  4.8475  3.4776  2.7063  1.7210  1.2338  1.1328  1.1328  0.9370  0.8761  0.8144
  0.6804  0.5019  0.5287  0.5487

 Free energy of the ion-electron system (eV)
  ---------------------------------------------------
  alpha Z        PSCENC =        34.87296113
  Ewald energy   TEWEN  =     50737.39207516
  -Hartree energ DENC   =    -77268.94164161
  -exchange      EXHF   =         0.00000000
  -V(xc)+E(xc)   XCENC  =       929.90966469
  PAW double counting   =     27181.08833845   -29434.42491306
  entropy T*S    EENTRO =         0.00000000
  eigenvalues    EBANDS =     -1447.66624300
  atomic energy  EATOM  =     29209.64727781
  Solvation  Ediel_sol  =         0.00000000
  ---------------------------------------------------
  free energy    TOTEN  =       -58.12248043 eV

  energy without entropy =      -58.12248043  energy(sigma->0) =      -58.12248043


--------------------------------------------------------------------------------------------------------




----------------------------------------- Iteration    1(  20)  ---------------------------------------


    POTLOK:  cpu time    0.8263: real time    0.8277
    SETDIJ:  cpu time    0.0170: real time    0.0170
    EDDIAG:  cpu time    0.9608: real time    0.9723
  RMM-DIIS:  cpu time    3.8056: real time    3.8182
    ORTHCH:  cpu time    0.0863: real time    0.0864
       DOS:  cpu time    0.0002: real time    0.0002
    --------------------------------------------
      LOOP:  cpu time    5.7027: real time    5.7320

 eigenvalue-minimisations  :   451
 total energy-change (2. order) : 0.2431989E-07  (-0.1441546E-06)
 number of electron     231.0000682 magnetization       1.0001694
 augmentation part      148.0697697 magnetization       0.1364909

 Free energy of the ion-electron system (eV)
  ---------------------------------------------------
  alpha Z        PSCENC =        34.87296113
  Ewald energy   TEWEN  =     50737.39207516
  -Hartree energ DENC   =    -77268.94463087
  -exchange      EXHF   =         0.00000000
  -V(xc)+E(xc)   XCENC  =       929.91016714
  PAW double counting   =     27180.77125758   -29434.10066343
  entropy T*S    EENTRO =         0.00000000
  eigenvalues    EBANDS =     -1447.67092492
  atomic energy  EATOM  =     29209.64727781
  Solvation  Ediel_sol  =         0.00000000
  ---------------------------------------------------
  free energy    TOTEN  =       -58.12248040 eV

  energy without entropy =      -58.12248040  energy(sigma->0) =      -58.12248040


--------------------------------------------------------------------------------------------------------




 average (electrostatic) potential at core
  the test charge radii are     0.9430
  (the norm of the test charge is              1.0000)
       1 -74.4164       2 -74.5835       3 -74.7286       4 -74.4475       5 -74.8891
       6 -74.3609       7 -74.7515       8 -74.7347       9 -74.5152      10 -74.6584
      11 -74.9082      12 -74.6505      13 -74.6704      14 -74.7314      15 -74.7255
      16 -74.5646      17 -74.4975      18 -74.6147      19 -74.5674      20 -74.7669
      21 -74.4476
 
 
 
 E-fermi :  -3.9418     XC(G=0):  -0.7382     alpha+bet : -0.3600


 spin component 1

 k-point     1 :       0.0000    0.0000    0.0000
  band No.  band energies     occupation 
      1     -11.1735      1.00000
      2      -9.6464      1.00000
      3      -9.3934      1.00000
      4      -9.2319      1.00000
      5      -8.3888      1.00000
      6      -8.2505      1.00000
      7      -8.1905      1.00000
      8      -8.1355      1.00000
      9      -8.1058      1.00000
     10      -7.9164      1.00000
     11      -7.7699      1.00000
     12      -7.7033      1.00000
     13      -7.6127      1.00000
     14      -7.5637      1.00000
     15      -7.4535      1.00000
     16      -7.4034      1.00000
     17      -7.3448      1.00000
     18      -7.2499      1.00000
     19      -7.2449      1.00000
     20      -7.2194      1.00000
     21      -7.1845      1.00000
     22      -7.1562      1.00000
     23      -7.1143      1.00000
     24      -7.0845      1.00000
     25      -7.0293      1.00000
     26      -7.0106      1.00000
     27      -6.9620      1.00000
     28      -6.9243      1.00000
     29      -6.9169      1.00000
     30      -6.8551      1.00000
     31      -6.8474      1.00000
     32      -6.8080      1.00000
     33      -6.7913      1.00000
     34      -6.7336      1.00000
     35      -6.6866      1.00000
     36      -6.6612      1.00000
     37      -6.6063      1.00000
     38      -6.5575      1.00000
     39      -6.5566      1.00000
     40      -6.5023      1.00000
     41      -6.4980      1.00000
     42      -6.4308      1.00000
     43      -6.4205      1.00000
     44      -6.3660      1.00000
     45      -6.3535      1.00000
     46      -6.3189      1.00000
     47      -6.2996      1.00000
     48      -6.2883      1.00000
     49      -6.2594      1.00000
     50      -6.2382      1.00000
     51      -6.2096      1.00000
     52      -6.1887      1.00000
     53      -6.1716      1.00000
     54      -6.1262      1.00000
     55      -6.1005      1.00000
     56      -6.0837      1.00000
     57      -6.0412      1.00000
     58      -6.0111      1.00000
     59      -5.9936      1.00000
     60      -5.9564      1.00000
     61      -5.9342      1.00000
     62      -5.9168      1.00000
     63      -5.8890      1.00000
     64      -5.8744      1.00000
     65      -5.8595      1.00000
     66      -5.8501      1.00000
     67      -5.7993      1.00000
     68      -5.7870      1.00000
     69      -5.7764      1.00000
     70      -5.7548      1.00000
     71      -5.7482      1.00000
     72      -5.7256      1.00000
     73      -5.6969      1.00000
     74      -5.6683      1.00000
     75      -5.6581      1.00000
     76      -5.6421      1.00000
     77      -5.6261      1.00000
     78      -5.6120      1.00000
     79      -5.6089      1.00000
     80      -5.5965      1.00000
     81      -5.5799      1.00000
     82      -5.5454      1.00000
     83      -5.5414      1.00000
     84      -5.5242      1.00000
     85      -5.5039      1.00000
     86      -5.4850      1.00000
     87      -5.4735      1.00000
     88      -5.4723      1.00000
     89      -5.4598      1.00000
     90      -5.4284      1.00000
     91      -5.4217      1.00000
     92      -5.4117      1.00000
     93      -5.4012      1.00000
     94      -5.3817      1.00000
     95      -5.3683      1.00000
     96      -5.3295      1.00000
     97      -5.3272      1.00000
     98      -5.3179      1.00000
     99      -5.3026      1.00000
    100      -5.2965      1.00000
    101      -5.2625      1.00000
    102      -5.2547      1.00000
    103      -5.2426      1.00000
    104      -5.2298      1.00000
    105      -5.2071      1.00000
    106      -5.1859      1.00000
    107      -5.1458      1.00000
    108      -5.1455      1.00000
    109      -5.1390      1.00000
    110      -5.0974      1.00000
    111      -4.9757      1.00000
    112      -4.8483      1.00000
    113      -4.7587      1.00000
    114      -4.4678      1.00000
    115      -4.1629      1.00000
    116      -3.9581      1.00000
    117      -3.2920      0.00000
    118      -3.1176      0.00000
    119      -2.9356      0.00000
    120      -2.8305      0.00000
    121      -2.7405      0.00000
    122      -2.5805      0.00000
    123      -2.5309      0.00000
    124      -2.4600      0.00000
    125      -2.0726      0.00000
    126      -1.8590      0.00000
    127      -1.4128      0.00000
    128      -1.2452      0.00000
    129      -1.0321      0.00000
    130      -0.7778      0.00000
    131      -0.7325      0.00000
    132      -0.6358      0.00000
    133      -0.5912      0.00000
    134      -0.5629      0.00000
    135      -0.4335      0.00000
    136      -0.2877      0.00000
    137      -0.1496      0.00000
    138      -0.0748      0.00000
    139       0.2163      0.00000
    140       0.2550      0.00000
    141       0.3396      0.00000
    142       0.4576      0.00000
    143       0.4856      0.00000
    144       0.4937      0.00000
    145       0.5210      0.00000
    146       0.5783      0.00000
    147       0.6002      0.00000
    148       0.6306      0.00000
    149       0.7178      0.00000
    150       0.7703      0.00000
    151       0.8033      0.00000
    152       0.8211      0.00000
    153       0.8322      0.00000
    154       0.8431      0.00000
    155       0.8566      0.00000
    156       0.8664      0.00000
    157       0.8779      0.00000
    158       0.9154      0.00000
    159       0.9436      0.00000
    160       1.0540      0.00000
    161       1.0752      0.00000
    162       1.1051      0.00000
    163       1.1145      0.00000
    164       1.1427      0.00000
    165       1.1607      0.00000
    166       1.2020      0.00000
    167       1.2221      0.00000
    168       1.2864      0.00000
    169       1.3997      0.00000
    170       1.4439      0.00000
    171       1.4998      0.00000
    172       1.5066      0.00000

 spin component 2

 k-point     1 :       0.0000    0.0000    0.0000
  band No.  band energies     occupation 
      1     -11.1504      1.00000
      2      -9.6154      1.00000
      3      -9.3641      1.00000
      4      -9.2093      1.00000
      5      -8.3596      1.00000
      6      -8.2304      1.00000
      7      -8.1727      1.00000
      8      -8.1181      1.00000
      9      -8.0870      1.00000
     10      -7.8975      1.00000
     11      -7.7446      1.00000
     12      -7.6853      1.00000
     13      -7.5894      1.00000
     14      -7.5337      1.00000
     15      -7.4267      1.00000
     16      -7.3739      1.00000
     17      -7.3231      1.00000
     18      -7.2297      1.00000
     19      -7.2218      1.00000
     20      -7.1952      1.00000
     21      -7.1603      1.00000
     22      -7.1341      1.00000
     23      -7.0913      1.00000
     24      -7.0693      1.00000
     25      -7.0129      1.00000
     26      -6.9947      1.00000
     27      -6.9471      1.00000
     28      -6.9085      1.00000
     29      -6.9004      1.00000
     30      -6.8381      1.00000
     31      -6.8277      1.00000
     32      -6.7880      1.00000
     33      -6.7691      1.00000
     34      -6.7129      1.00000
     35      -6.6652      1.00000
     36      -6.6395      1.00000
     37      -6.5831      1.00000
     38      -6.5365      1.00000
     39      -6.5343      1.00000
     40      -6.4823      1.00000
     41      -6.4765      1.00000
     42      -6.4121      1.00000
     43      -6.4007      1.00000
     44      -6.3499      1.00000
     45      -6.3320      1.00000
     46      -6.2892      1.00000
     47      -6.2792      1.00000
     48      -6.2703      1.00000
     49      -6.2350      1.00000
     50      -6.2147      1.00000
     51      -6.1877      1.00000
     52      -6.1718      1.00000
     53      -6.1455      1.00000
     54      -6.1064      1.00000
     55      -6.0798      1.00000
     56      -6.0609      1.00000
     57      -6.0207      1.00000
     58      -5.9891      1.00000
     59      -5.9710      1.00000
     60      -5.9387      1.00000
     61      -5.9138      1.00000
     62      -5.8905      1.00000
     63      -5.8719      1.00000
     64      -5.8577      1.00000
     65      -5.8429      1.00000
     66      -5.8323      1.00000
     67      -5.7772      1.00000
     68      -5.7713      1.00000
     69      -5.7579      1.00000
     70      -5.7361      1.00000
     71      -5.7287      1.00000
     72      -5.7048      1.00000
     73      -5.6776      1.00000
     74      -5.6502      1.00000
     75      -5.6360      1.00000
     76      -5.6222      1.00000
     77      -5.6076      1.00000
     78      -5.5965      1.00000
     79      -5.5914      1.00000
     80      -5.5776      1.00000
     81      -5.5594      1.00000
     82      -5.5284      1.00000
     83      -5.5225      1.00000
     84      -5.5079      1.00000
     85      -5.4900      1.00000
     86      -5.4698      1.00000
     87      -5.4577      1.00000
     88      -5.4536      1.00000
     89      -5.4420      1.00000
     90      -5.4087      1.00000
     91      -5.4029      1.00000
     92      -5.3947      1.00000
     93      -5.3790      1.00000
     94      -5.3627      1.00000
     95      -5.3470      1.00000
     96      -5.3147      1.00000
     97      -5.3126      1.00000
     98      -5.2991      1.00000
     99      -5.2850      1.00000
    100      -5.2800      1.00000
    101      -5.2359      1.00000
    102      -5.2276      1.00000
    103      -5.2168      1.00000
    104      -5.1971      1.00000
    105      -5.1822      1.00000
    106      -5.1520      1.00000
    107      -5.1301      1.00000
    108      -5.1281      1.00000
    109      -5.1146      1.00000
    110      -5.0598      1.00000
    111      -4.9505      1.00000
    112      -4.8234      1.00000
    113      -4.7327      1.00000
    114      -4.4430      1.00000
    115      -4.1403      1.00000
    116      -3.7897      0.00000
    117      -3.2486      0.00000
    118      -3.0821      0.00000
    119      -2.8854      0.00000
    120      -2.7944      0.00000
    121      -2.7109      0.00000
    122      -2.5504      0.00000
    123      -2.4988      0.00000
    124      -2.4306      0.00000
    125      -2.0420      0.00000
    126      -1.6647      0.00000
    127      -1.3210      0.00000
    128      -1.1833      0.00000
    129      -0.9423      0.00000
    130      -0.7245      0.00000
    131      -0.7110      0.00000
    132      -0.6004      0.00000
    133      -0.5562      0.00000
    134      -0.4927      0.00000
    135      -0.3808      0.00000
    136      -0.2575      0.00000
    137      -0.0986      0.00000
    138      -0.0368      0.00000
    139       0.2330      0.00000
    140       0.2789      0.00000
    141       0.3634      0.00000
    142       0.4732      0.00000
    143       0.5042      0.00000
    144       0.5165      0.00000
    145       0.5428      0.00000
    146       0.5905      0.00000
    147       0.6196      0.00000
    148       0.6848      0.00000
    149       0.7543      0.00000
    150       0.7954      0.00000
    151       0.8127      0.00000
    152       0.8343      0.00000
    153       0.8451      0.00000
    154       0.8635      0.00000
    155       0.8669      0.00000
    156       0.8761      0.00000
    157       0.8848      0.00000
    158       0.9442      0.00000
    159       0.9869      0.00000
    160       1.0656      0.00000
    161       1.1032      0.00000
    162       1.1147      0.00000
    163       1.1258      0.00000
    164       1.1621      0.00000
    165       1.1692      0.00000
    166       1.2235      0.00000
    167       1.2469      0.00000
    168       1.3140      0.00000
    169       1.4559      0.00000
    170       1.4739      0.00000
    171       1.5175      0.00000
    172       1.5827      0.00000


--------------------------------------------------------------------------------------------------------


 soft charge-density along one line, spin component           1
         0         1         2         3         4         5         6         7         8         9
 total charge-density along one line
 
 soft charge-density along one line, spin component           2
         0         1         2         3         4         5         6         7         8         9
 total charge-density along one line
 
 pseudopotential strength for first ion, spin component:           1
-10.648  -0.007  -0.021   0.017   0.006   1.110   0.006   0.015
 -0.007 -10.663   0.019   0.012  -0.019   0.006   1.122  -0.014
 -0.021   0.019 -10.662  -0.005  -0.003   0.015  -0.014   1.120
  0.017   0.012  -0.005 -10.645  -0.008  -0.013  -0.008   0.003
  0.006  -0.019  -0.003  -0.008 -10.645  -0.005   0.013   0.003
  1.110   0.006   0.015  -0.013  -0.005   6.236  -0.002  -0.009
  0.006   1.122  -0.014  -0.008   0.013  -0.002   6.228   0.009
  0.015  -0.014   1.120   0.003   0.003  -0.009   0.009   6.230
 -0.013  -0.008   0.003   1.107   0.006   0.007   0.005  -0.002
 -0.005   0.013   0.003   0.006   1.108   0.003  -0.008  -0.002
 -0.003  -0.003   0.000   0.002  -0.002  -0.002  -0.002  -0.000
 -0.004  -0.005   0.001   0.004  -0.004  -0.003  -0.004  -0.000
 -0.011  -0.009  -0.007   0.000  -0.013   0.007   0.005   0.004
  0.000   0.011  -0.010  -0.012  -0.000  -0.001  -0.006   0.004
  0.011   0.000   0.006  -0.010  -0.011  -0.006  -0.001  -0.003
 -0.012  -0.009  -0.007   0.000  -0.013   0.006   0.003   0.003
  0.000   0.011  -0.009  -0.012  -0.000  -0.001  -0.004   0.001
  0.011   0.000   0.006  -0.009  -0.011  -0.004  -0.001  -0.002
 pseudopotential strength for first ion, spin component:           2
-10.645  -0.008  -0.020   0.018   0.006   1.107   0.006   0.015
 -0.008 -10.659   0.015   0.011  -0.020   0.006   1.117  -0.011
 -0.020   0.015 -10.656  -0.003  -0.002   0.015  -0.011   1.115
  0.018   0.011  -0.003 -10.644  -0.008  -0.013  -0.008   0.003
  0.006  -0.020  -0.002  -0.008 -10.642  -0.004   0.015   0.002
  1.107   0.006   0.015  -0.013  -0.004   6.235  -0.003  -0.009
  0.006   1.117  -0.011  -0.008   0.015  -0.003   6.227   0.007
  0.015  -0.011   1.115   0.003   0.002  -0.009   0.007   6.228
 -0.013  -0.008   0.003   1.106   0.006   0.009   0.004  -0.001
 -0.004   0.015   0.002   0.006   1.104   0.003  -0.010  -0.001
 -0.003  -0.005   0.002   0.003  -0.001  -0.001   0.000  -0.002
 -0.004  -0.008   0.003   0.005  -0.003  -0.003  -0.000  -0.004
 -0.011  -0.010  -0.007   0.000  -0.013   0.007   0.007   0.004
  0.000   0.012  -0.011  -0.012  -0.000  -0.001  -0.007   0.007
  0.012   0.000   0.006  -0.010  -0.011  -0.007  -0.001  -0.003
 -0.012  -0.010  -0.007   0.001  -0.013   0.007   0.006   0.003
  0.001   0.013  -0.011  -0.013  -0.000  -0.001  -0.006   0.006
  0.012   0.001   0.006  -0.010  -0.011  -0.005  -0.001  -0.003
 total augmentation occupancy for first ion, spin component:           1
  1.952   0.001  -0.003   0.000   0.007  -0.011   0.004   0.007  -0.001  -0.006   0.000  -0.002   0.033   0.009  -0.059  -0.019
  0.001   1.944   0.008  -0.002  -0.002   0.004  -0.010  -0.007   0.001   0.003   0.006  -0.003   0.038  -0.056   0.012  -0.018
 -0.003   0.008   1.947  -0.002   0.001   0.007  -0.007  -0.013   0.001  -0.001   0.001   0.002   0.029   0.057  -0.036  -0.014
  0.000  -0.002  -0.002   1.960  -0.003  -0.000   0.002   0.001  -0.019   0.004  -0.016  -0.005   0.006   0.031   0.038  -0.001
  0.007  -0.002   0.001  -0.003   1.956  -0.006   0.003  -0.001   0.004  -0.015   0.007   0.003   0.042  -0.005   0.050  -0.025
 -0.011   0.004   0.007  -0.000  -0.006   0.007   0.001   0.002  -0.001   0.000  -0.018   0.003   0.012  -0.000  -0.012  -0.001
  0.004  -0.010  -0.007   0.002   0.003   0.001   0.007  -0.001  -0.001   0.002  -0.019   0.004   0.012  -0.012  -0.001  -0.001
  0.007  -0.007  -0.013   0.001  -0.001   0.002  -0.001   0.007   0.001   0.001  -0.006   0.000   0.010   0.014  -0.004  -0.000
 -0.001   0.001   0.001  -0.019   0.004  -0.001  -0.001   0.001   0.007   0.003   0.032  -0.004   0.001   0.013   0.014   0.000
 -0.006   0.003  -0.001   0.004  -0.015   0.000   0.002   0.001   0.003   0.008  -0.010   0.001   0.018   0.003   0.012  -0.001
  0.000   0.006   0.001  -0.016   0.007  -0.018  -0.019  -0.006   0.032  -0.010   1.639  -0.088  -0.184   0.154   0.151   0.023
 -0.002  -0.003   0.002  -0.005   0.003   0.003   0.004   0.000  -0.004   0.001  -0.088   0.010   0.020  -0.018  -0.016  -0.002
  0.033   0.038   0.029   0.006   0.042   0.012   0.012   0.010   0.001   0.018  -0.184   0.020   0.100  -0.007  -0.006  -0.008
  0.009  -0.056   0.057   0.031  -0.005  -0.000  -0.012   0.014   0.013   0.003   0.154  -0.018  -0.007   0.081   0.023   0.002
 -0.059   0.012  -0.036   0.038   0.050  -0.012  -0.001  -0.004   0.014   0.012   0.151  -0.016  -0.006   0.023   0.076   0.002
 -0.019  -0.018  -0.014  -0.001  -0.025  -0.001  -0.001  -0.000   0.000  -0.001   0.023  -0.002  -0.008   0.002   0.002   0.001
 -0.001   0.023  -0.021  -0.019  -0.000   0.000   0.001  -0.001  -0.001  -0.000  -0.019   0.002   0.002  -0.007  -0.002  -0.000
  0.023  -0.001   0.011  -0.019  -0.020   0.001   0.000   0.000  -0.001  -0.001  -0.018   0.002   0.002  -0.002  -0.007  -0.000
 total augmentation occupancy for first ion, spin component:           2
  0.001   0.000   0.000  -0.001  -0.000   0.002   0.000  -0.000  -0.000   0.000  -0.001  -0.000  -0.001   0.000   0.001  -0.000
  0.000   0.004  -0.003  -0.001   0.000   0.000   0.002   0.001   0.000   0.000  -0.017  -0.003  -0.004   0.004   0.001  -0.001
  0.000  -0.003   0.005   0.001   0.001  -0.000   0.001   0.002  -0.000  -0.000   0.018   0.003   0.000  -0.009  -0.000   0.000
 -0.001  -0.001   0.001   0.002   0.001  -0.000   0.000  -0.000   0.003   0.000   0.006   0.001  -0.000  -0.002  -0.004   0.000
 -0.000   0.000   0.001   0.001   0.001   0.000   0.000  -0.000   0.000   0.002   0.005   0.001  -0.001  -0.001  -0.001  -0.000
  0.002   0.000  -0.000  -0.000   0.000  -0.000  -0.000  -0.000   0.000  -0.000   0.000   0.000   0.000  -0.000  -0.000  -0.000
  0.000   0.002   0.001   0.000   0.000  -0.000   0.000  -0.000  -0.000  -0.000   0.004   0.000   0.000  -0.001  -0.000   0.000
 -0.000   0.001   0.002  -0.000  -0.000  -0.000  -0.000   0.000   0.000   0.000  -0.004  -0.000  -0.000   0.001   0.000  -0.000
 -0.000   0.000  -0.000   0.003   0.000   0.000  -0.000   0.000  -0.000  -0.000  -0.001  -0.000  -0.000   0.000   0.000  -0.000
  0.000   0.000  -0.000   0.000   0.002  -0.000  -0.000   0.000  -0.000  -0.000  -0.001  -0.000   0.000   0.000   0.000  -0.000
 -0.001  -0.017   0.018   0.006   0.005   0.000   0.004  -0.004  -0.001  -0.001   0.144   0.008   0.005  -0.035  -0.008   0.001
 -0.000  -0.003   0.003   0.001   0.001   0.000   0.000  -0.000  -0.000  -0.000   0.008   0.001   0.000  -0.002  -0.000   0.000
 -0.001  -0.004   0.000  -0.000  -0.001   0.000   0.000  -0.000  -0.000   0.000   0.005   0.000   0.001   0.000   0.000   0.000
  0.000   0.004  -0.009  -0.002  -0.001  -0.000  -0.001   0.001   0.000   0.000  -0.035  -0.002   0.000   0.005   0.001  -0.000
  0.001   0.001  -0.000  -0.004  -0.001  -0.000  -0.000   0.000   0.000   0.000  -0.008  -0.000   0.000   0.001   0.001  -0.000
 -0.000  -0.001   0.000   0.000  -0.000  -0.000   0.000  -0.000  -0.000  -0.000   0.001   0.000   0.000  -0.000  -0.000   0.000
  0.000   0.000  -0.001  -0.000  -0.000  -0.000   0.000   0.000  -0.000   0.000  -0.000  -0.000  -0.000   0.000   0.000  -0.000
  0.000   0.000  -0.000  -0.001  -0.000   0.000  -0.000   0.000  -0.000  -0.000  -0.000  -0.000  -0.000   0.000   0.000  -0.000


------------------------ aborting loop because EDIFF is reached ----------------------------------------


 


 total charge     
 
# of ion     s       p       d       tot
----------------------------------------
  1        0.477   0.132   9.280   9.889
  2        0.445   0.209   9.257   9.911
  3        0.459   0.282   9.223   9.964
  4        0.466   0.172   9.265   9.902
  5        0.457   0.324   9.208   9.988
  6        0.486   0.130   9.272   9.888
  7        0.454   0.307   9.206   9.968
  8        0.448   0.271   9.228   9.947
  9        0.468   0.200   9.253   9.921
 10        0.461   0.280   9.214   9.955
 11        0.451   0.384   9.231  10.067
 12        0.439   0.244   9.235   9.918
 13        0.444   0.248   9.236   9.928
 14        0.447   0.264   9.232   9.942
 15        0.456   0.289   9.210   9.956
 16        0.460   0.218   9.251   9.929
 17        0.475   0.187   9.260   9.921
 18        0.462   0.206   9.255   9.924
 19        0.465   0.201   9.249   9.915
 20        0.441   0.252   9.241   9.934
 21        0.479   0.137   9.276   9.892
------------------------------------------------
tot        9.639   4.938 194.081 208.658
 


 magnetization (x)
 
# of ion     s       p       d       tot
----------------------------------------
  1        0.059   0.005   0.002   0.066
  2       -0.000   0.008   0.007   0.015
  3        0.018   0.008   0.017   0.043
  4        0.006   0.006   0.014   0.026
[...]
  1.112   0.006   0.015  -0.013  -0.005   6.231  -0.003  -0.009
  0.006   1.123  -0.011  -0.008   0.015  -0.003   6.222   0.007
  0.015  -0.011   1.121   0.003   0.002  -0.009   0.007   6.223
 -0.013  -0.008   0.003   1.112   0.006   0.009   0.005  -0.001
 -0.005   0.015   0.002   0.006   1.111   0.003  -0.010  -0.001
 -0.003  -0.005   0.002   0.003  -0.002  -0.001   0.000  -0.002
 -0.004  -0.008   0.003   0.004  -0.003  -0.003  -0.000  -0.004
 -0.011  -0.009  -0.007   0.000  -0.013   0.007   0.007   0.004
  0.000   0.012  -0.011  -0.012  -0.000  -0.001  -0.007   0.007
  0.012   0.000   0.006  -0.010  -0.010  -0.007  -0.001  -0.003
 -0.012  -0.010  -0.007   0.001  -0.013   0.007   0.006   0.003
  0.001   0.013  -0.011  -0.012  -0.000  -0.001  -0.006   0.006
  0.012   0.001   0.006  -0.010  -0.011  -0.005  -0.001  -0.003
 total augmentation occupancy for first ion, spin component:           1
  1.952   0.001  -0.003   0.000   0.008  -0.011   0.004   0.007  -0.001  -0.007   0.001  -0.002   0.032   0.009  -0.059  -0.018
  0.001   1.944   0.008  -0.002  -0.002   0.004  -0.010  -0.008   0.001   0.003   0.006  -0.003   0.036  -0.057   0.011  -0.018
 -0.003   0.008   1.947  -0.002   0.001   0.007  -0.008  -0.012   0.001  -0.001   0.001   0.002   0.029   0.058  -0.036  -0.014
  0.000  -0.002  -0.002   1.960  -0.003  -0.000   0.001   0.001  -0.019   0.004  -0.016  -0.005   0.005   0.031   0.037  -0.001
  0.008  -0.002   0.001  -0.003   1.956  -0.007   0.003  -0.001   0.004  -0.014   0.006   0.003   0.043  -0.004   0.050  -0.025
 -0.011   0.004   0.007  -0.000  -0.007   0.007   0.001   0.002  -0.001   0.000  -0.019   0.003   0.012  -0.000  -0.012  -0.001
  0.004  -0.010  -0.008   0.001   0.003   0.001   0.007  -0.001  -0.001   0.002  -0.019   0.004   0.012  -0.012  -0.001  -0.001
  0.007  -0.008  -0.012   0.001  -0.001   0.002  -0.001   0.007   0.001   0.001  -0.006   0.000   0.010   0.014  -0.004  -0.000
 -0.001   0.001   0.001  -0.019   0.004  -0.001  -0.001   0.001   0.007   0.002   0.031  -0.004   0.001   0.013   0.014   0.000
 -0.007   0.003  -0.001   0.004  -0.014   0.000   0.002   0.001   0.002   0.008  -0.011   0.001   0.018   0.003   0.012  -0.001
  0.001   0.006   0.001  -0.016   0.006  -0.019  -0.019  -0.006   0.031  -0.011   1.640  -0.088  -0.187   0.153   0.150   0.023
 -0.002  -0.003   0.002  -0.005   0.003   0.003   0.004   0.000  -0.004   0.001  -0.088   0.010   0.020  -0.018  -0.016  -0.002
  0.032   0.036   0.029   0.005   0.043   0.012   0.012   0.010   0.001   0.018  -0.187   0.020   0.101  -0.007  -0.006  -0.008
  0.009  -0.057   0.058   0.031  -0.004  -0.000  -0.012   0.014   0.013   0.003   0.153  -0.018  -0.007   0.080   0.023   0.002
 -0.059   0.011  -0.036   0.037   0.050  -0.012  -0.001  -0.004   0.014   0.012   0.150  -0.016  -0.006   0.023   0.076   0.002
 -0.018  -0.018  -0.014  -0.001  -0.025  -0.001  -0.001  -0.000   0.000  -0.001   0.023  -0.002  -0.008   0.002   0.002   0.001
 -0.001   0.023  -0.021  -0.019  -0.000   0.000   0.001  -0.001  -0.001  -0.000  -0.019   0.002   0.002  -0.007  -0.002  -0.000
  0.023  -0.001   0.011  -0.019  -0.020   0.001   0.000   0.000  -0.001  -0.001  -0.018   0.002   0.002  -0.002  -0.007  -0.000
 total augmentation occupancy for first ion, spin component:           2
  0.001   0.000   0.000  -0.001  -0.000   0.002   0.000  -0.000  -0.000   0.000  -0.002  -0.000  -0.001   0.000   0.001  -0.000
  0.000   0.004  -0.003  -0.001   0.000   0.000   0.002   0.001   0.000   0.000  -0.017  -0.003  -0.004   0.004   0.001  -0.001
  0.000  -0.003   0.005   0.001   0.000  -0.000   0.001   0.002  -0.000  -0.000   0.018   0.003   0.000  -0.009  -0.000   0.000
 -0.001  -0.001   0.001   0.002   0.001  -0.000   0.000  -0.000   0.003   0.000   0.006   0.001  -0.000  -0.002  -0.004   0.000
 -0.000   0.000   0.000   0.001   0.001   0.000   0.000  -0.000   0.000   0.002   0.004   0.001  -0.001  -0.001  -0.001  -0.000
  0.002   0.000  -0.000  -0.000   0.000  -0.000  -0.000  -0.000   0.000  -0.000   0.001   0.000   0.000  -0.000  -0.000  -0.000
  0.000   0.002   0.001   0.000   0.000  -0.000   0.000  -0.000  -0.000  -0.000   0.004   0.000   0.000  -0.001  -0.000   0.000
 -0.000   0.001   0.002  -0.000  -0.000  -0.000  -0.000   0.000   0.000   0.000  -0.004  -0.000  -0.000   0.001   0.000  -0.000
 -0.000   0.000  -0.000   0.003   0.000   0.000  -0.000   0.000  -0.000  -0.000  -0.001  -0.000  -0.000   0.000   0.000  -0.000
  0.000   0.000  -0.000   0.000   0.002  -0.000  -0.000   0.000  -0.000  -0.000  -0.001  -0.000   0.000   0.000   0.000  -0.000
 -0.002  -0.017   0.018   0.006   0.004   0.001   0.004  -0.004  -0.001  -0.001   0.144   0.008   0.005  -0.035  -0.008   0.001
 -0.000  -0.003   0.003   0.001   0.001   0.000   0.000  -0.000  -0.000  -0.000   0.008   0.001   0.000  -0.001  -0.000   0.000
 -0.001  -0.004   0.000  -0.000  -0.001   0.000   0.000  -0.000  -0.000   0.000   0.005   0.000   0.001   0.000   0.000   0.000
  0.000   0.004  -0.009  -0.002  -0.001  -0.000  -0.001   0.001   0.000   0.000  -0.035  -0.001   0.000   0.005   0.001  -0.000
  0.001   0.001  -0.000  -0.004  -0.001  -0.000  -0.000   0.000   0.000   0.000  -0.008  -0.000   0.000   0.001   0.001  -0.000
 -0.000  -0.001   0.000   0.000  -0.000  -0.000   0.000  -0.000  -0.000  -0.000   0.001   0.000   0.000  -0.000  -0.000   0.000
  0.000   0.000  -0.001  -0.000  -0.000  -0.000   0.000   0.000  -0.000   0.000  -0.000  -0.000  -0.000   0.000   0.000  -0.000
  0.000   0.000  -0.000  -0.001  -0.000   0.000  -0.000   0.000  -0.000  -0.000  -0.000  -0.000  -0.000   0.000   0.000  -0.000


------------------------ aborting loop because EDIFF is reached ----------------------------------------


 


 total charge     
 
# of ion     s       p       d       tot
----------------------------------------
  1        0.477   0.133   9.280   9.890
  2        0.446   0.211   9.256   9.913
  3        0.459   0.283   9.223   9.965
  4        0.467   0.172   9.264   9.903
  5        0.456   0.323   9.208   9.987
  6        0.488   0.131   9.271   9.889
  7        0.456   0.311   9.206   9.973
  8        0.449   0.272   9.228   9.948
  9        0.467   0.199   9.253   9.920
 10        0.461   0.280   9.214   9.955
 11        0.452   0.385   9.232  10.068
 12        0.438   0.243   9.235   9.916
 13        0.444   0.247   9.236   9.928
 14        0.448   0.268   9.231   9.946
 15        0.457   0.295   9.209   9.960
 16        0.461   0.218   9.250   9.929
 17        0.473   0.184   9.261   9.918
 18        0.462   0.205   9.255   9.923
 19        0.466   0.203   9.249   9.918
 20        0.440   0.253   9.241   9.934
 21        0.478   0.136   9.277   9.891
------------------------------------------------
tot        9.644   4.950 194.080 208.674
 


 magnetization (x)
 
# of ion     s       p       d       tot
----------------------------------------
  1        0.059   0.005   0.002   0.066
  2       -0.000   0.008   0.007   0.016
  3        0.018   0.008   0.017   0.043
  4        0.006   0.006   0.014   0.026
  5       -0.000   0.004   0.018   0.022
  6        0.000   0.002   0.010   0.012
  7        0.000   0.009   0.011   0.020
  8        0.001  -0.000   0.009   0.010
  9        0.001   0.015   0.033   0.049
 10       -0.000   0.017  -0.001   0.015
 11        0.002   0.004   0.010   0.015
 12       -0.000   0.006   0.012   0.017
 13        0.008   0.000   0.004   0.013
 14        0.005   0.008   0.011   0.024
 15        0.007   0.003   0.028   0.038
 16        0.001   0.001   0.008   0.009
 17        0.011   0.002   0.014   0.026
 18       -0.001  -0.000   0.004   0.003
 19        0.000   0.001   0.007   0.009
 20        0.011   0.011   0.009   0.031
 21        0.055   0.008   0.005   0.067
------------------------------------------------
tot        0.183   0.118   0.232   0.533
 
    CHARGE:  cpu time    0.2878: real time    0.3217
    FORLOC:  cpu time    0.0598: real time    0.0598
    FORNL :  cpu time    5.9383: real time    5.9605
    STRESS:  cpu time    5.5221: real time    5.5318
    FORCOR:  cpu time    0.8591: real time    0.8705
    FORHAR:  cpu time    0.1382: real time    0.1383
    MIXING:  cpu time    0.0203: real time    0.0203
    OFIELD:  cpu time    0.0002: real time    0.0002

  FORCE on cell =-STRESS in cart. coord.  units (eV):
  Direction    XX          YY          ZZ          XY          YZ          ZX
  --------------------------------------------------------------------------------------
  Alpha Z    34.87296    34.87296    34.87296
  Ewald   16000.13848 16065.61942 18731.05832 -2752.15404 -1345.54193  2731.71756
  Hartree 24935.00086 24967.94413 27424.99930 -2462.55832 -1239.13030  2431.87610
  E(xc)   -1348.16735 -1348.02622 -1347.80530    -0.45052    -0.19585     0.52440
  Local  -43002.35991-43100.04987-48216.26783  5207.09933  2583.94975 -5156.19001
  n-local  -495.27796  -494.53429  -494.41254    -0.04749    -0.70874     0.23813
  augment  1974.98934  1973.98039  1971.03071     3.76126     0.94693    -3.87866
  Kinetic  1895.09830  1894.28068  1890.90025     4.38074     0.65361    -4.36974
  Fock        0.00000     0.00000     0.00000     0.00000     0.00000     0.00000
  -------------------------------------------------------------------------------------
  Total      -5.70527    -5.91279    -5.62412     0.03097    -0.02654    -0.08222
  in kB      -0.98838    -1.02433    -0.97432     0.00536    -0.00460    -0.01424
  external pressure =       -1.00 kB  Pullay stress =        0.00 kB


 VOLUME and BASIS-vectors are now :
 -----------------------------------------------------------------------------
  energy-cutoff  :      295.45
  volume of cell :     9248.30
      direct lattice vectors                 reciprocal lattice vectors
    20.990397470  0.000000000  0.000000000     0.047640832  0.000000000  0.000000000
     0.000000000 20.990397470  0.000000000     0.000000000  0.047640832  0.000000000
     0.000000000  0.000000000 20.990397470     0.000000000  0.000000000  0.047640832

  length of vectors
    20.990397470 20.990397470 20.990397470     0.047640832  0.047640832  0.047640832


 FORCES acting on ions
    electron-ion (+dipol)            ewald-force                    non-local-force                 convergence-correction
 -----------------------------------------------------------------------------------------------
   0.882E+03 -.113E+04 0.865E+03   -.876E+03 0.112E+04 -.860E+03   -.536E+01 0.686E+01 -.531E+01   -.549E-01 -.159E-01 -.560E-01
   0.124E+04 -.446E+02 0.114E+04   -.123E+04 0.450E+02 -.114E+04   -.509E+01 -.363E+00 -.496E+01   0.754E-01 0.217E-02 -.320E-01
   0.134E+04 -.750E+03 -.236E+03   -.134E+04 0.748E+03 0.237E+03   -.217E+01 0.208E+01 -.557E+00   0.289E-01 0.404E-01 -.581E-01
   0.559E+02 -.172E+04 -.832E+02   -.560E+02 0.172E+04 0.821E+02   0.172E+00 0.840E+01 0.111E+01   -.210E-01 0.105E-01 -.295E-01
   -.985E+02 -.869E+03 0.116E+04   0.993E+02 0.867E+03 -.116E+04   -.766E+00 0.207E+01 -.758E+00   -.693E-03 0.479E-01 -.272E-01
   0.970E+03 0.113E+04 0.851E+03   -.964E+03 -.112E+04 -.846E+03   -.567E+01 -.681E+01 -.511E+01   -.302E-01 0.130E-01 -.239E-01
   0.133E+04 0.664E+03 -.137E+03   -.133E+04 -.663E+03 0.138E+03   -.706E+00 -.316E+00 -.131E+01   -.467E-01 -.104E-01 0.242E-01
   -.225E+02 0.522E+03 0.157E+04   0.229E+02 -.521E+03 -.156E+04   -.441E+00 -.147E+01 -.384E+01   -.170E-01 -.825E-02 -.713E-01
   0.139E+04 -.734E+02 -.107E+04   -.138E+04 0.730E+02 0.106E+04   -.637E+01 0.483E+00 0.470E+01   -.540E-01 -.190E-01 0.676E-01
   0.130E+03 -.115E+04 -.100E+04   -.129E+03 0.115E+04 0.100E+04   -.681E+00 0.956E+00 0.105E+01   -.218E-01 -.824E-02 0.626E-01
   -.237E+03 0.646E+02 0.642E+02   0.235E+03 -.645E+02 -.633E+02   0.153E+01 0.367E-01 -.790E+00   0.332E-01 -.638E-01 -.322E-01
   -.109E+04 -.136E+04 -.520E+02   0.109E+04 0.136E+04 0.508E+02   0.361E+01 0.423E+01 0.126E+01   -.352E-01 -.156E-01 0.154E-01
   0.145E+03 0.171E+04 0.195E+03   -.145E+03 -.171E+04 -.194E+03   0.294E+00 -.572E+01 -.239E+00   -.106E+00 0.211E-01 -.323E-01
   -.112E+04 -.456E+03 -.111E+04   0.112E+04 0.456E+03 0.111E+04   0.334E+01 0.383E+00 0.336E+01   -.581E-01 -.129E-01 0.126E-01
   0.540E+03 0.110E+04 -.931E+03   -.541E+03 -.109E+04 0.929E+03   0.257E+00 -.506E+00 0.219E+01   0.567E-01 0.102E+00 0.239E-01
   -.113E+04 -.455E+03 0.135E+04   0.112E+04 0.454E+03 -.134E+04   0.358E+01 0.115E+01 -.585E+01   0.159E+00 0.254E-01 -.143E-01
   0.223E+03 -.275E+03 -.168E+04   -.222E+03 0.274E+03 0.167E+04   -.654E+00 0.172E+01 0.779E+01   -.232E-01 0.203E-02 0.154E+00
   -.111E+04 0.110E+04 0.924E+03   0.111E+04 -.110E+04 -.920E+03   0.419E+01 -.395E+01 -.378E+01   -.215E-01 -.833E-01 -.415E-01
   -.180E+04 -.981E+02 -.146E+02   0.180E+04 0.986E+02 0.135E+02   0.641E+01 -.394E+00 0.111E+01   0.109E+00 -.419E-01 0.347E-01
   -.105E+04 0.129E+04 -.449E+03   0.105E+04 -.128E+04 0.448E+03   0.342E+01 -.432E+01 0.525E+00   -.241E-01 -.350E-02 0.400E-02
   -.580E+03 0.814E+03 -.136E+04   0.577E+03 -.810E+03 0.135E+04   0.343E+01 -.458E+01 0.797E+01   0.182E-01 -.119E-01 0.488E-01
 -----------------------------------------------------------------------------------------------
   -.232E+01 0.915E-01 0.151E+01   0.682E-12 -.114E-11 0.909E-12   0.232E+01 -.517E-01 -.146E+01   -.342E-01 -.304E-01 0.297E-01
 
 
 POSITION                                       TOTAL-FORCE (eV/Angst)
 -----------------------------------------------------------------------------------
      8.32584     13.28989      8.44163         0.004450     -0.007579     -0.001724
      8.22124     10.75207      8.31409         0.011696      0.000317      0.005217
      8.40928     11.97803     10.45378         0.002623     -0.004476     -0.004074
     10.01654     13.82784     10.25824         0.000357      0.001371     -0.001015
     10.30315     12.00706      8.73305         0.001273     -0.000177     -0.003454
      8.42262      8.20334      8.43318        -0.003150      0.004286      0.002759
      8.61018      9.54079     10.39340        -0.006721      0.002611     -0.004851
     10.38644      9.58105      8.12719         0.000162      0.004312     -0.007084
      8.35947     10.67520     12.52016        -0.002274      0.002795      0.003895
     10.26146     12.11634     12.01664         0.002262     -0.003747     -0.001723
     11.10142     10.27364     10.34019        -0.002908     -0.000763     -0.004717
     12.12900     12.46014     10.45335        -0.007057     -0.001261      0.007199
     10.36253      7.91244      9.98563        -0.010315      0.002729     -0.000218
     12.22913     10.75444     12.48144        -0.007030     -0.001132     -0.001748
     10.08545      8.96937     12.25971         0.002630      0.009238     -0.006870
     12.47925     11.05671      8.39765         0.002712      0.006780     -0.010279
     10.30605     10.64801     13.99563        -0.002570      0.003512      0.011170
     12.53137      8.69009      9.02515        -0.000183     -0.009947     -0.006840
     13.60445     10.44410     10.44851         0.017541     -0.006863      0.013667
     12.36788      8.47218     11.46671        -0.002081     -0.000710      0.004091
     11.88639      8.74644     13.85381        -0.001417     -0.001294      0.006598
 -----------------------------------------------------------------------------------
    total drift:                               -0.032843      0.009396      0.078876


--------------------------------------------------------------------------------------------------------



  FREE ENERGIE OF THE ION-ELECTRON SYSTEM (eV)
  ---------------------------------------------------
  free  energy   TOTEN  =       -58.12952268 eV

  energy  without entropy=      -58.12952268  energy(sigma->0) =      -58.12952268
 
 d Force = 0.2945201E-03[ 0.200E-03, 0.389E-03]  d Energy = 0.2966477E-03-0.213E-05
 d Force = 0.1759531E+02[ 0.176E+02, 0.176E+02]  d Ewald  = 0.1759531E+02-0.172E-05


--------------------------------------------------------------------------------------------------------


    POTLOK:  cpu time    0.8566: real time    0.8573


--------------------------------------------------------------------------------------------------------


 Conjugate gradient step on ions:
 trial-energy change:   -0.000297  1 .order   -0.000295   -0.000389   -0.000200
  (g-gl).g = 0.279E-03      g.g   = 0.243E-03  gl.gl    = 0.557E-03
 g(Force)  = 0.243E-03   g(Stress)= 0.000E+00 ortho     =-0.411E-04
 gamma     =   0.50050
 trial     =   1.74976
 opt step  =   3.60326  (harmonic =   3.60326) maximal distance =0.00637498
 next E    =   -58.129627   (d E  =  -0.00040)


--------------------------------------------------------------------------------------------------------


  
 reached required accuracy - stopping structural energy minimisation
     LOOP+:  cpu time   53.3718: real time   54.5187
    4ORBIT:  cpu time    0.0000: real time    0.0000
 


 total charge     
 
# of ion     s       p       d       tot
----------------------------------------
  1        0.477   0.133   9.280   9.890
  2        0.446   0.211   9.256   9.913
  3        0.459   0.283   9.223   9.965
  4        0.467   0.172   9.264   9.903
  5        0.456   0.323   9.208   9.987
  6        0.488   0.131   9.271   9.889
  7        0.456   0.311   9.206   9.973
  8        0.449   0.272   9.228   9.948
  9        0.467   0.199   9.253   9.920
 10        0.461   0.280   9.214   9.955
 11        0.452   0.385   9.232  10.068
 12        0.438   0.243   9.235   9.916
 13        0.444   0.247   9.236   9.928
 14        0.448   0.268   9.231   9.946
 15        0.457   0.295   9.209   9.960
 16        0.461   0.218   9.250   9.929
 17        0.473   0.184   9.261   9.918
 18        0.462   0.205   9.255   9.923
 19        0.466   0.203   9.249   9.918
 20        0.440   0.253   9.241   9.934
 21        0.478   0.136   9.277   9.891
------------------------------------------------
tot        9.644   4.950 194.080 208.674
 


 magnetization (x)
 
# of ion     s       p       d       tot
----------------------------------------
  1        0.059   0.005   0.002   0.066
  2       -0.000   0.008   0.007   0.016
  3        0.018   0.008   0.017   0.043
  4        0.006   0.006   0.014   0.026
  5       -0.000   0.004   0.018   0.022
  6        0.000   0.002   0.010   0.012
  7        0.000   0.009   0.011   0.020
  8        0.001  -0.000   0.009   0.010
  9        0.001   0.015   0.033   0.049
 10       -0.000   0.017  -0.001   0.015
 11        0.002   0.004   0.010   0.015
 12       -0.000   0.006   0.012   0.017
 13        0.008   0.000   0.004   0.013
 14        0.005   0.008   0.011   0.024
 15        0.007   0.003   0.028   0.038
 16        0.001   0.001   0.008   0.009
 17        0.011   0.002   0.014   0.026
 18       -0.001  -0.000   0.004   0.003
 19        0.000   0.001   0.007   0.009
 20        0.011   0.011   0.009   0.031
 21        0.055   0.008   0.005   0.067
------------------------------------------------
tot        0.183   0.118   0.232   0.533
 

 total amount of memory used by VASP on root node    86417. kBytes
========================================================================

   base      :      30000. kBytes
   nonl-proj :       4256. kBytes
   fftplans  :      11262. kBytes
   grid      :      28586. kBytes
   one-center:         62. kBytes
   wavefun   :      12251. kBytes
 
  
  
 General timing and accounting informations for this job:
 ========================================================
  
                  Total CPU time used (sec):      952.558
                            User time (sec):      933.655
                          System time (sec):       18.902
                         Elapsed time (sec):      959.247
  
                   Maximum memory used (kb):      157720.
                   Average memory used (kb):           0.
  
                          Minor page faults:      1349508
                          Major page faults:            0
                 Voluntary context switches:         2950
