 vasp.5.4.4.18Apr17-6-g9f103f2a35 (build Jan 10 2020 15:46:39) gamma-only       
  
 executed on             LinuxIFC date 2022.06.17  20:36:48
 running on   64 total cores
 distrk:  each k-point on   64 cores,    1 groups
 distr:  one band on NCORES_PER_BAND=  16 cores,    4 groups


--------------------------------------------------------------------------------------------------------


 INCAR:
 POTCAR:    PAW_PBE Cu 22Jun2005                  
 POTCAR:    PAW_PBE Cu 22Jun2005                  
   VRHFIN =Cu: d10 p1                                                           
   LEXCH  = PE                                                                  
   EATOM  =  1390.9808 eV,  102.2342 Ry                                         
                                                                                
   TITEL  = PAW_PBE Cu 22Jun2005                                                
   LULTRA =        F    use ultrasoft PP ?                                      
   IUNSCR =        1    unscreen: 0-lin 1-nonlin 2-no                           
   RPACOR =    2.000    partial core radius                                     
   POMASS =   63.546; ZVAL   =   11.000    mass and valenz                      
   RCORE  =    2.300    outmost cutoff radius                                   
   RWIGS  =    2.200; RWIGS  =    1.164    wigner-seitz radius (au A)           
   ENMAX  =  295.446; ENMIN  =  221.585 eV                                      
   ICORE  =        3    local potential                                         
   LCOR   =        T    correct aug charges                                     
   LPAW   =        T    paw PP                                                  
   EAUG   =  586.980                                                            
   DEXC   =    0.000                                                            
   RMAX   =    2.344    core radius for proj-oper                               
   RAUG   =    1.300    factor for augmentation sphere                          
   RDEP   =    2.302    radius for radial grids                                 
   RDEPT  =    1.771    core radius for aug-charge                              
                                                                                
   Atomic configuration                                                         
    9 entries                                                                   
     n  l   j            E        occ.                                          
     1  0  0.50     -8850.2468   2.0000                                         
     2  0  0.50     -1062.3498   2.0000                                         
     2  1  1.50      -916.8226   6.0000                                         
     3  0  0.50      -114.6929   2.0000                                         
     3  1  1.50       -72.1325   6.0000                                         
     3  2  2.50        -5.0394  10.0000                                         
     4  0  0.50        -4.6097   1.0000                                         
     4  1  0.50        -4.0817   0.0000                                         
     4  3  2.50        -1.3606   0.0000                                         
   Description                                                                  
     l       E           TYP  RCUT    TYP  RCUT                                 
     2     -5.0393973     23  2.200                                             
     2     10.8846608     23  2.200                                             
     0     -4.6097109     23  2.200                                             
     0      8.2520465     23  2.200                                             
     1     -2.7211652     23  2.200                                             
     1     21.7055443     23  2.200                                             
     3      2.7211652     23  2.300                                             
  local pseudopotential read in
  partial core-charges read in
  partial kinetic energy density read in
  atomic valenz-charges read in
  non local Contribution for L=           2  read in
    real space projection operators read in
  non local Contribution for L=           2  read in
    real space projection operators read in
  non local Contribution for L=           0  read in
    real space projection operators read in
  non local Contribution for L=           0  read in
    real space projection operators read in
  non local Contribution for L=           1  read in
    real space projection operators read in
  non local Contribution for L=           1  read in
    real space projection operators read in
    PAW grid and wavefunctions read in
 
   number of l-projection  operators is LMAX  =           6
   number of lm-projection operators is LMMAX =          18
 

 ----------------------------------------------------------------------------- 
|                                                                             |
|  ADVICE TO THIS USER RUNNING 'VASP/VAMP'   (HEAR YOUR MASTER'S VOICE ...):  |
|                                                                             |
|      You have a (more or less) 'large supercell' and for larger cells       |
|      it might be more efficient to use real space projection opertators     |
|      So try LREAL= Auto  in the INCAR   file.                               |
|      Mind:          For very  accurate calculation you might also keep the  |
|      reciprocal projection scheme          (i.e. LREAL=.FALSE.)             |
|                                                                             |
 ----------------------------------------------------------------------------- 

  PAW_PBE Cu 22Jun2005                  :
 energy of atom  1       EATOM=-1390.9808
 kinetic energy error for atom=    0.0452 (will be added to EATOM!!)
 
 
 POSCAR: Unknown Structure <s> Cu </s>           
  positions in direct lattice
  velocities in cartesian coordinates
 exchange correlation table for  LEXCH =        8
   RHO(1)=    0.500       N(1)  =     2000
   RHO(2)=  100.500       N(2)  =     4000
 


--------------------------------------------------------------------------------------------------------


 ion  position               nearest neighbor table
   1  0.557  0.308  0.503-   4 2.38   7 2.45   2 2.48   9 2.60
   2  0.596  0.402  0.448-   4 2.44   7 2.45   3 2.45  10 2.47   1 2.48   5 2.50
   3  0.633  0.499  0.399-  10 2.41  17 2.45   2 2.45   5 2.45   8 2.54
   4  0.554  0.406  0.554-   1 2.38  15 2.43   6 2.44   2 2.44   9 2.45   5 2.46   7 2.52
   5  0.594  0.503  0.507-   8 2.45   3 2.45   4 2.46  11 2.47   2 2.50   6 2.53  13 2.55  12 2.61
                            10 2.68
   6  0.574  0.495  0.623-  18 2.38  11 2.42   4 2.44  15 2.46   5 2.53
   7  0.483  0.386  0.462-   9 2.39  14 2.41   2 2.45   1 2.45  10 2.49   4 2.52  16 2.58  12 2.66

   8  0.640  0.599  0.463-  13 2.42   5 2.45  17 2.47   3 2.54  11 2.55
   9  0.458  0.345  0.563-   7 2.39  16 2.43   4 2.45  15 2.53   1 2.60
  10  0.522  0.481  0.406-  17 2.40   3 2.41  14 2.42   2 2.47  12 2.49   7 2.49  19 2.55   5 2.68

  11  0.605  0.595  0.577-  13 2.41   6 2.42   5 2.47  18 2.48   8 2.55
  12  0.471  0.501  0.510-  16 2.40  15 2.49  10 2.49  18 2.52  20 2.53  19 2.54  13 2.55  14 2.57
                             5 2.61  21 2.64  22 2.66   7 2.66
  13  0.531  0.603  0.492-  11 2.41   8 2.42  22 2.43  17 2.43  19 2.51   5 2.55  12 2.55  18 2.58

  14  0.411  0.459  0.414-   7 2.41  10 2.42  21 2.42  16 2.52  19 2.53  12 2.57
  15  0.469  0.451  0.615-  20 2.42   4 2.43   6 2.46  12 2.49   9 2.53  18 2.61  16 2.61
  16  0.388  0.427  0.526-  12 2.40   9 2.43  14 2.52  20 2.52  21 2.54   7 2.58  15 2.61
  17  0.558  0.585  0.383-  10 2.40  13 2.43   3 2.45   8 2.47  19 2.52
  18  0.494  0.570  0.603-   6 2.38  20 2.47  22 2.47  11 2.48  12 2.52  13 2.58  15 2.61
  19  0.446  0.572  0.418-  23 2.46  22 2.49  21 2.50  13 2.51  17 2.52  14 2.53  12 2.54  10 2.55

  20  0.388  0.526  0.590-  15 2.42  21 2.44  22 2.46  18 2.47  16 2.52  12 2.53
  21  0.355  0.532  0.481-  14 2.42  23 2.44  20 2.44  22 2.45  19 2.50  16 2.54  12 2.64
  22  0.422  0.615  0.524-  23 2.37  13 2.43  21 2.45  20 2.46  18 2.47  19 2.49  12 2.66
  23  0.354  0.639  0.440-  22 2.37  21 2.44  19 2.46
 

IMPORTANT INFORMATION: All symmetrisations will be switched off!
NOSYMM: (Re-)initialisation of all symmetry stuff for point group C_1.

 
 
 KPOINTS: Gamma only                              
  k-points in reciprocal lattice
Space group operators:
 irot       det(A)        alpha          n_x          n_y          n_z        tau_x        tau_y        tau_z
    1     1.000000     0.000000     1.000000     0.000000     0.000000     0.000000     0.000000     0.000000


--------------------------------------------------------------------------------------------------------




 Dimension of arrays:
   k-points           NKPTS =      1   k-points in BZ     NKDIM =      1   number of bands    NBANDS=    188
   number of dos      NEDOS =    301   number of ions     NIONS =     23
   non local maximal  LDIM  =      6   non local SUM 2l+1 LMDIM =     18
   total plane-waves  NPLWV = 729000
   max r-space proj   IRMAX =      1   max aug-charges    IRDMAX=   2371
   dimension x,y,z NGX =    90 NGY =   90 NGZ =   90
   dimension x,y,z NGXF=   180 NGYF=  180 NGZF=  180
   support grid    NGXF=   180 NGYF=  180 NGZF=  180
   ions per type =              23
   NGX,Y,Z   is equivalent  to a cutoff of   7.01,  7.01,  7.01 a.u.
   NGXF,Y,Z  is equivalent  to a cutoff of  14.02, 14.02, 14.02 a.u.

 SYSTEM =  unknown system                          
 POSCAR =  Unknown Structure <s> Cu </s>           

 Startparameter for this run:
   NWRITE =      2    write-flag & timer
   PREC   = normal    normal or accurate (medium, high low for compatibility)
   ISTART =      0    job   : 0-new  1-cont  2-samecut
   ICHARG =      2    charge: 1-file 2-atom 10-const
   ISPIN  =      2    spin polarized calculation?
   LNONCOLLINEAR =      F non collinear calculations
   LSORBIT =      F    spin-orbit coupling
   INIWAV =      1    electr: 0-lowe 1-rand  2-diag
   LASPH  =      F    aspherical Exc in radial PAW
   METAGGA=      F    non-selfconsistent MetaGGA calc.

 Electronic Relaxation 1
   ENCUT  =  295.4 eV  21.71 Ry    4.66 a.u.  29.92 29.92 29.92*2*pi/ulx,y,z
   ENINI  =  295.4     initial cutoff
   ENAUG  =  587.0 eV  augmentation charge cutoff
   NELM   =     60;   NELMIN=  2; NELMDL=  0     # of ELM steps 
   EDIFF  = 0.1E-05   stopping-criterion for ELM
   LREAL  =      F    real-space projection
   NLSPLINE    = F    spline interpolate recip. space projectors
   LCOMPAT=      F    compatible to vasp.4.4
   GGA_COMPAT  = T    GGA compatible to vasp.4.4-vasp.4.6
   LMAXPAW     = -100 max onsite density
   LMAXMIX     =    2 max onsite mixed and CHGCAR
   VOSKOWN=      0    Vosko Wilk Nusair interpolation
   ROPT   =    0.00000
 Ionic relaxation
   EDIFFG = -.3E-01   stopping-criterion for IOM
   NSW    =    100    number of steps for IOM
   NBLOCK =      1;   KBLOCK =    100    inner block; outer block 
   IBRION =      2    ionic relax: 0-MD 1-quasi-New 2-CG
   NFREE  =      1    steps in history (QN), initial steepest desc. (CG)
   ISIF   =      2    stress and relaxation
   IWAVPR =     11    prediction:  0-non 1-charg 2-wave 3-comb
   ISYM   =      0    0-nonsym 1-usesym 2-fastsym
   LCORR  =      T    Harris-Foulkes like correction to forces

   POTIM  = 0.5000    time-step for ionic-motion
   TEIN   =    0.0    initial temperature
   TEBEG  =    0.0;   TEEND  =   0.0 temperature during run
   SMASS  =  -3.00    Nose mass-parameter (am)
   estimated Nose-frequenzy (Omega)   =  0.10E-29 period in steps =****** mass=  -0.104E-25a.u.
   SCALEE = 1.0000    scale energy and forces
   NPACO  =    256;   APACO  = 16.0  distance and # of slots for P.C.
   PSTRESS=    0.0 pullay stress

  Mass of Ions in am
   POMASS =  63.55
  Ionic Valenz
   ZVAL   =  11.00
  Atomic Wigner-Seitz radii
   RWIGS  =  -1.00
  virtual crystal weights 
   VCA    =   1.00
   NELECT =     253.0000    total number of electrons
   NUPDOWN=      -1.0000    fix difference up-down

 DOS related values:
   EMIN   =  10.00;   EMAX   =-10.00  energy-range for DOS
   EFERMI =   0.00
   ISMEAR =     0;   SIGMA  =   0.00  broadening in eV -4-tet -1-fermi 0-gaus

 Electronic relaxation 2 (details)
   IALGO  =     68    algorithm
   LDIAG  =      T    sub-space diagonalisation (order eigenvalues)
   LSUBROT=      F    optimize rotation matrix (better conditioning)
   TURBO    =      0    0=normal 1=particle mesh
   IRESTART =      0    0=no restart 2=restart with 2 vectors
   NREBOOT  =      0    no. of reboots
   NMIN     =      0    reboot dimension
   EREF     =   0.00    reference energy to select bands
   IMIX   =      4    mixing-type and parameters
     AMIX     =   0.20;   BMIX     =  0.00
     AMIX_MAG =   0.80;   BMIX_MAG =  0.00
     AMIN     =   0.10
     WC   =   100.;   INIMIX=   1;  MIXPRE=   1;  MAXMIX= -45

 Intra band minimization:
   WEIMIN = 0.0010     energy-eigenvalue tresh-hold
   EBREAK =  0.13E-08  absolut break condition
   DEPER  =   0.30     relativ break condition  

   TIME   =   0.40     timestep for ELM

  volume/ion in A,a.u.               =     422.83      2853.40
  Fermi-wavevector in a.u.,A,eV,Ry     =   0.485084  0.916676  3.201539  0.235307
  Thomas-Fermi vector in A             =   1.485123
 
 Write flags
   LWAVE        =      F    write WAVECAR
   LDOWNSAMPLE  =      F    k-point downsampling of WAVECAR
   LCHARG       =      F    write CHGCAR
   LVTOT        =      F    write LOCPOT, total local potential
   LVHAR        =      F    write LOCPOT, Hartree potential only
   LELF         =      F    write electronic localiz. function (ELF)
   LORBIT       =     11    0 simple, 1 ext, 2 COOP (PROOUT), +10 PAW based schemes


 Dipole corrections
   LMONO  =      F    monopole corrections only (constant potential shift)
   LDIPOL =      F    correct potential (dipole corrections)
   IDIPOL =      0    1-x, 2-y, 3-z, 4-all directions 
   EPSILON=  1.0000000 bulk dielectric constant

 Exchange correlation treatment:
   GGA     =    PE    GGA type
   LEXCH   =     8    internal setting for exchange type
   VOSKOWN=      0    Vosko Wilk Nusair interpolation
   LHFCALC =     F    Hartree Fock is set to
   LHFONE  =     F    Hartree Fock one center treatment
   AEXX    =    0.0000 exact exchange contribution

 Linear response parameters
   LEPSILON=     F    determine dielectric tensor
   LRPA    =     F    only Hartree local field effects (RPA)
   LNABLA  =     F    use nabla operator in PAW spheres
   LVEL    =     F    velocity operator in full k-point grid
   LINTERFAST=   F  fast interpolation
   KINTER  =     0    interpolate to denser k-point grid
   CSHIFT  =0.1000    complex shift for real part using Kramers Kronig
   OMEGAMAX=  -1.0    maximum frequency
   DEG_THRESHOLD= 0.2000000E-02 threshold for treating states as degnerate
   RTIME   =   -0.100 relaxation time in fs
  (WPLASMAI=    0.000 imaginary part of plasma frequency in eV, 0.658/RTIME)
   DFIELD  = 0.0000000 0.0000000 0.0000000 field for delta impulse in time
 
 Orbital magnetization related:
   ORBITALMAG=     F  switch on orbital magnetization
   LCHIMAG   =     F  perturbation theory with respect to B field
   DQ        =  0.001000  dq finite difference perturbation B field
   LLRAUG    =     F  two centre corrections for induced B field



--------------------------------------------------------------------------------------------------------


 conjugate gradient relaxation of ions
 charge density and potential will be updated during run
 spin polarized calculation
 RMM-DIIS sequential band-by-band and
  variant of blocked Davidson during initial phase
 perform sub-space diagonalisation
    before iterative eigenvector-optimisation
 modified Broyden-mixing scheme, WC =      100.0
 initial mixing is a Kerker type mixing with AMIX =  0.2000 and BMIX =      0.0001
 Hartree-type preconditioning will be used
 using additional bands           61
 reciprocal scheme for non local part
 use partial core corrections
 calculate Harris-corrections to forces 
   (improved forces if not selfconsistent)
 use gradient corrections 
 use of overlap-Matrix (Vanderbilt PP)
 Gauss-broadening in eV      SIGMA  =   0.00


--------------------------------------------------------------------------------------------------------


  energy-cutoff  :      295.45
  volume of cell :     9725.10
      direct lattice vectors                 reciprocal lattice vectors
    21.345092079  0.000000000  0.000000000     0.046849177  0.000000000  0.000000000
     0.000000000 21.345092079  0.000000000     0.000000000  0.046849177  0.000000000
     0.000000000  0.000000000 21.345092079     0.000000000  0.000000000  0.046849177

  length of vectors
    21.345092079 21.345092079 21.345092079     0.046849177  0.046849177  0.046849177


 
 k-points in units of 2pi/SCALE and weight: Gamma only                              
   0.00000000  0.00000000  0.00000000       1.000
 
 k-points in reciprocal lattice and weights: Gamma only                              
   0.00000000  0.00000000  0.00000000       1.000
 
 position of ions in fractional coordinates (direct lattice) 
   0.55657563  0.30762522  0.50250692
   0.59554764  0.40226412  0.44768606
   0.63252263  0.49921828  0.39852528
   0.55404849  0.40631041  0.55430093
   0.59374669  0.50326237  0.50670637
   0.57444931  0.49535377  0.62322021
   0.48294269  0.38610574  0.46245647
   0.64006993  0.59869858  0.46315107
   0.45772750  0.34489321  0.56329612
   0.52155485  0.48096267  0.40620553
   0.60457178  0.59453367  0.57738949
   0.47143388  0.50113587  0.50955120
   0.53067135  0.60345662  0.49246127
   0.41089897  0.45882782  0.41434484
   0.46856676  0.45117888  0.61478445
   0.38842697  0.42709675  0.52564729
   0.55765608  0.58491400  0.38321355
   0.49411974  0.56994546  0.60281706
   0.44552643  0.57235914  0.41781126
   0.38780487  0.52648849  0.58975116
   0.35507792  0.53214841  0.48053418
   0.42204082  0.61457204  0.52402201
   0.35401910  0.63864848  0.43961728
 
 position of ions in cartesian coordinates  (Angst):
  11.88015810  6.56628861 10.72605639
  12.71201917  8.58636473  9.55590023
  13.50125382 10.65586020  8.50655876
  11.82621601  8.67273321 11.83160446
  12.67357777 10.74218168 10.81569409
  12.26167338 10.57337193 13.30269267
  10.30845609  8.24146249  9.87117592
  13.66235158 12.77927624  9.88600227
   9.77023553  7.36177736 12.02360748
  11.13263630 10.26619253  8.67049449
  12.90464021 12.69037593 12.32443187
  10.06279953 10.69679124 10.87641723
  11.32722887 12.88083722 10.51163110
   8.77067644  9.79372199  8.84422884
  10.00160058  9.63045477 13.12263072
   8.29100939  9.11641944 11.21998976
  11.90322041 12.48504317  8.17972850
  10.54703127 12.16553826 12.86718575
   9.50980258 12.21705844  8.91821979
   8.27773069 11.23794526 12.58829272
   7.57917084 11.35875679 10.25704635
   9.00850016 13.11809684 11.18529809
   7.55657018 13.63201058  9.38367140
 


--------------------------------------------------------------------------------------------------------


 use parallel FFT for orbitals z direction half grid
 k-point  1 :   0.0000 0.0000 0.0000  plane waves:   56106

 maximum and minimum number of plane-waves per node :      3513     3501

 maximum number of plane-waves:     56106
 maximum index in each direction: 
   IXMAX=   29   IYMAX=   29   IZMAX=   29
   IXMIN=  -29   IYMIN=  -29   IZMIN=    0


 parallel 3D FFT for wavefunctions:
    minimum data exchange during FFTs selected (reduces bandwidth)
 parallel 3D FFT for charge:
    minimum data exchange during FFTs selected (reduces bandwidth)


 total amount of memory used by VASP MPI-rank0    52431. kBytes
=======================================================================

   base      :      30000. kBytes
   nonl-proj :       1796. kBytes
   fftplans  :       4337. kBytes
   grid      :      10964. kBytes
   one-center:         31. kBytes
   wavefun   :       5303. kBytes
 
     INWAV:  cpu time    0.0001: real time    0.0001
 Broyden mixing: mesh for mixing (old mesh)
   NGX = 59   NGY = 59   NGZ = 59
  (NGX  =180   NGY  =180   NGZ  =180)
  gives a total of 205379 points

 initial charge density was supplied:
 charge density of overlapping atoms calculated
 number of electron     253.0000000 magnetization      69.0000000
 keeping initial charge density in first step


--------------------------------------------------------------------------------------------------------


 Maximum index for augmentation-charges          198 (set IRDMAX)


--------------------------------------------------------------------------------------------------------


 First call to EWALD:  gamma=   0.083
 Maximum number of real-space cells 3x 3x 3
 Maximum number of reciprocal cells 3x 3x 3

    FEWALD:  cpu time    0.0131: real time    0.0203


--------------------------------------- Iteration      1(   1)  ---------------------------------------


    POTLOK:  cpu time    0.5787: real time    0.6269
    SETDIJ:  cpu time    0.0678: real time    0.0782
     EDDAV:  cpu time    4.1493: real time    4.2191
       DOS:  cpu time    0.0140: real time    0.0316
    --------------------------------------------
      LOOP:  cpu time    4.8101: real time    4.9561

 eigenvalue-minimisations  :   752
 total energy-change (2. order) : 0.1658102E+04  (-0.5178015E+04)
 number of electron     253.0000000 magnetization      69.0000000
 augmentation part      253.0000000 magnetization      69.0000000

 Free energy of the ion-electron system (eV)
  ---------------------------------------------------
  alpha Z        PSCENC =        39.78082609
  Ewald energy   TEWEN  =     58676.04996180
  -Hartree energ DENC   =    -87842.53116837
  -exchange      EXHF   =         0.00000000
  -V(xc)+E(xc)   XCENC  =      1058.97216977
  PAW double counting   =     28225.99513546   -30656.60516771
  entropy T*S    EENTRO =        -0.00000000
  eigenvalues    EBANDS =       164.92189823
  atomic energy  EATOM  =     31991.51844713
  Solvation  Ediel_sol  =         0.00000000
  ---------------------------------------------------
  free energy    TOTEN  =      1658.10210242 eV

  energy without entropy =     1658.10210242  energy(sigma->0) =     1658.10210242


--------------------------------------------------------------------------------------------------------




--------------------------------------- Iteration      1(   2)  ---------------------------------------


     EDDAV:  cpu time    4.2153: real time    4.2312
       DOS:  cpu time    0.0008: real time    0.0008
    --------------------------------------------
      LOOP:  cpu time    4.2159: real time    4.2318

 eigenvalue-minimisations  :   792
 total energy-change (2. order) :-0.1539109E+04  (-0.1358134E+04)
 number of electron     253.0000000 magnetization      69.0000000
 augmentation part      253.0000000 magnetization      69.0000000

 Free energy of the ion-electron system (eV)
  ---------------------------------------------------
  alpha Z        PSCENC =        39.78082609
  Ewald energy   TEWEN  =     58676.04996180
  -Hartree energ DENC   =    -87842.53116837
  -exchange      EXHF   =         0.00000000
  -V(xc)+E(xc)   XCENC  =      1058.97216977
  PAW double counting   =     28225.99513546   -30656.60516771
  entropy T*S    EENTRO =         0.00000000
  eigenvalues    EBANDS =     -1374.18687768
  atomic energy  EATOM  =     31991.51844713
  Solvation  Ediel_sol  =         0.00000000
  ---------------------------------------------------
  free energy    TOTEN  =       118.99332651 eV

  energy without entropy =      118.99332651  energy(sigma->0) =      118.99332651


--------------------------------------------------------------------------------------------------------




--------------------------------------- Iteration      1(   3)  ---------------------------------------


     EDDAV:  cpu time    4.6755: real time    4.6714
       DOS:  cpu time    0.0005: real time    0.0005
    --------------------------------------------
      LOOP:  cpu time    4.6760: real time    4.6719

 eigenvalue-minimisations  :   904
 total energy-change (2. order) :-0.1521825E+03  (-0.1445110E+03)
 number of electron     253.0000000 magnetization      69.0000000
 augmentation part      253.0000000 magnetization      69.0000000

 Free energy of the ion-electron system (eV)
  ---------------------------------------------------
  alpha Z        PSCENC =        39.78082609
  Ewald energy   TEWEN  =     58676.04996180
  -Hartree energ DENC   =    -87842.53116837
  -exchange      EXHF   =         0.00000000
  -V(xc)+E(xc)   XCENC  =      1058.97216977
  PAW double counting   =     28225.99513546   -30656.60516771
  entropy T*S    EENTRO =         0.00000000
  eigenvalues    EBANDS =     -1526.36937144
  atomic energy  EATOM  =     31991.51844713
  Solvation  Ediel_sol  =         0.00000000
  ---------------------------------------------------
  free energy    TOTEN  =       -33.18916726 eV

  energy without entropy =      -33.18916726  energy(sigma->0) =      -33.18916726


--------------------------------------------------------------------------------------------------------




--------------------------------------- Iteration      1(   4)  ---------------------------------------


     EDDAV:  cpu time    4.8180: real time    4.8207
       DOS:  cpu time    0.0007: real time    0.0007
    --------------------------------------------
      LOOP:  cpu time    4.8188: real time    4.8214

 eigenvalue-minimisations  :   944
 total energy-change (2. order) :-0.1069047E+02  (-0.9984544E+01)
 number of electron     253.0000000 magnetization      69.0000000
 augmentation part      253.0000000 magnetization      69.0000000

 Free energy of the ion-electron system (eV)
  ---------------------------------------------------
  alpha Z        PSCENC =        39.78082609
  Ewald energy   TEWEN  =     58676.04996180
  -Hartree energ DENC   =    -87842.53116837
  -exchange      EXHF   =         0.00000000
  -V(xc)+E(xc)   XCENC  =      1058.97216977
  PAW double counting   =     28225.99513546   -30656.60516771
  entropy T*S    EENTRO =        -0.00000000
  eigenvalues    EBANDS =     -1537.05983669
  atomic energy  EATOM  =     31991.51844713
  Solvation  Ediel_sol  =         0.00000000
  ---------------------------------------------------
  free energy    TOTEN  =       -43.87963250 eV

  energy without entropy =      -43.87963250  energy(sigma->0) =      -43.87963250


--------------------------------------------------------------------------------------------------------




--------------------------------------- Iteration      1(   5)  ---------------------------------------


     EDDAV:  cpu time    4.9945: real time    5.0211
       DOS:  cpu time    0.0012: real time    0.2266
    CHARGE:  cpu time    0.2040: real time    0.2339
    MIXING:  cpu time    0.0355: real time    0.0738
    --------------------------------------------
      LOOP:  cpu time    5.2352: real time    5.5554

 eigenvalue-minimisations  :  1000
 total energy-change (2. order) :-0.3463540E+00  (-0.3453858E+00)
 number of electron     252.9999690 magnetization      25.8000040
 augmentation part      149.1477413 magnetization      22.6269124

 Broyden mixing:
  rms(total) = 0.84618E+01    rms(broyden)= 0.84598E+01
  rms(prec ) = 0.85719E+01
  weight for this iteration     100.00

 Free energy of the ion-electron system (eV)
  ---------------------------------------------------
  alpha Z        PSCENC =        39.78082609
  Ewald energy   TEWEN  =     58676.04996180
  -Hartree energ DENC   =    -87842.53116837
  -exchange      EXHF   =         0.00000000
  -V(xc)+E(xc)   XCENC  =      1058.97216977
  PAW double counting   =     28225.99513546   -30656.60516771
  entropy T*S    EENTRO =         0.00000000
  eigenvalues    EBANDS =     -1537.40619064
  atomic energy  EATOM  =     31991.51844713
  Solvation  Ediel_sol  =         0.00000000
  ---------------------------------------------------
  free energy    TOTEN  =       -44.22598646 eV

  energy without entropy =      -44.22598646  energy(sigma->0) =      -44.22598646


--------------------------------------------------------------------------------------------------------




--------------------------------------- Iteration      1(   6)  ---------------------------------------


    POTLOK:  cpu time    0.5407: real time    0.5724
    SETDIJ:  cpu time    0.0272: real time    0.0272
    EDDIAG:  cpu time    0.7159: real time    0.7356
  RMM-DIIS:  cpu time    2.9837: real time    2.9903
    ORTHCH:  cpu time    0.0472: real time    0.0471
       DOS:  cpu time    0.0010: real time    0.0010
    CHARGE:  cpu time    0.1860: real time    0.1858
    MIXING:  cpu time    0.0165: real time    0.0246
    --------------------------------------------
      LOOP:  cpu time    4.5183: real time    4.5841

 eigenvalue-minimisations  :   754
 total energy-change (2. order) :-0.1778221E+02  (-0.8824443E+01)
 number of electron     252.9999675 magnetization      -0.2870742
 augmentation part      163.9885244 magnetization       0.8921770

 Broyden mixing:
  rms(total) = 0.38495E+01    rms(broyden)= 0.38478E+01
  rms(prec ) = 0.39000E+01
  weight for this iteration     100.00

 eigenvalues of (default mixing * dielectric matrix)
  average eigenvalue GAMMA=   1.6561
  1.6561

 Free energy of the ion-electron system (eV)
  ---------------------------------------------------
  alpha Z        PSCENC =        39.78082609
  Ewald energy   TEWEN  =     58676.04996180
  -Hartree energ DENC   =    -87472.07831893
  -exchange      EXHF   =         0.00000000
  -V(xc)+E(xc)   XCENC  =      1021.52463729
  PAW double counting   =     28247.90468263   -30618.10421154
  entropy T*S    EENTRO =         0.00000000
  eigenvalues    EBANDS =     -1948.60422326
  atomic energy  EATOM  =     31991.51844713
  Solvation  Ediel_sol  =         0.00000000
  ---------------------------------------------------
  free energy    TOTEN  =       -62.00819879 eV

  energy without entropy =      -62.00819879  energy(sigma->0) =      -62.00819879


--------------------------------------------------------------------------------------------------------




--------------------------------------- Iteration      1(   7)  ---------------------------------------


    POTLOK:  cpu time    0.5636: real time    0.5671
    SETDIJ:  cpu time    0.0274: real time    0.0273
    EDDIAG:  cpu time    0.7039: real time    0.7039
  RMM-DIIS:  cpu time    2.9668: real time    2.9638
    ORTHCH:  cpu time    0.0490: real time    0.0490
       DOS:  cpu time    0.0010: real time    0.0010
    CHARGE:  cpu time    0.1868: real time    0.1865
    MIXING:  cpu time    0.0121: real time    0.0121
    --------------------------------------------
      LOOP:  cpu time    4.5105: real time    4.5107

 eigenvalue-minimisations  :   754
 total energy-change (2. order) :-0.4553104E+01  (-0.2361946E+01)
 number of electron     252.9999674 magnetization      -2.5056363
 augmentation part      160.9977431 magnetization      -1.1126443

 Broyden mixing:
  rms(total) = 0.11243E+01    rms(broyden)= 0.11231E+01
  rms(prec ) = 0.13982E+01
  weight for this iteration     100.00

 eigenvalues of (default mixing * dielectric matrix)
  average eigenvalue GAMMA=   1.1576
  0.7757  1.5395

 Free energy of the ion-electron system (eV)
  ---------------------------------------------------
  alpha Z        PSCENC =        39.78082609
  Ewald energy   TEWEN  =     58676.04996180
  -Hartree energ DENC   =    -87740.21274980
  -exchange      EXHF   =         0.00000000
  -V(xc)+E(xc)   XCENC  =      1021.16568529
  PAW double counting   =     28755.44580584   -31171.91297394
  entropy T*S    EENTRO =         0.00000000
  eigenvalues    EBANDS =     -1638.39630491
  atomic energy  EATOM  =     31991.51844713
  Solvation  Ediel_sol  =         0.00000000
  ---------------------------------------------------
  free energy    TOTEN  =       -66.56130250 eV

  energy without entropy =      -66.56130250  energy(sigma->0) =      -66.56130250


--------------------------------------------------------------------------------------------------------




--------------------------------------- Iteration      1(   8)  ---------------------------------------


    POTLOK:  cpu time    0.5393: real time    0.5774
    SETDIJ:  cpu time    0.0276: real time    0.0274
    EDDIAG:  cpu time    0.7056: real time    0.7057
  RMM-DIIS:  cpu time    2.9728: real time    2.9697
    ORTHCH:  cpu time    0.0469: real time    0.0469
       DOS:  cpu time    0.0013: real time    0.0013
    CHARGE:  cpu time    0.1874: real time    0.1872
    MIXING:  cpu time    0.0127: real time    0.0127
    --------------------------------------------
      LOOP:  cpu time    4.4936: real time    4.5282

 eigenvalue-minimisations  :   754
 total energy-change (2. order) : 0.1099309E+01  (-0.1062966E+01)
 number of electron     252.9999678 magnetization      -1.7643457
 augmentation part      161.9652314 magnetization      -0.6689769

 Broyden mixing:
  rms(total) = 0.74904E+00    rms(broyden)= 0.74766E+00
  rms(prec ) = 0.94128E+00
  weight for this iteration     100.00

 eigenvalues of (default mixing * dielectric matrix)
  average eigenvalue GAMMA=   0.9331
  1.4933  0.8295  0.4765

 Free energy of the ion-electron system (eV)
  ---------------------------------------------------
  alpha Z        PSCENC =        39.78082609
  Ewald energy   TEWEN  =     58676.04996180
  -Hartree energ DENC   =    -87733.91587352
  -exchange      EXHF   =         0.00000000
  -V(xc)+E(xc)   XCENC  =      1019.87898633
  PAW double counting   =     28934.00668622   -31358.30091392
  entropy T*S    EENTRO =         0.00000000
  eigenvalues    EBANDS =     -1634.48011395
  atomic energy  EATOM  =     31991.51844713
  Solvation  Ediel_sol  =         0.00000000
  ---------------------------------------------------
  free energy    TOTEN  =       -65.46199381 eV

  energy without entropy =      -65.46199381  energy(sigma->0) =      -65.46199381


--------------------------------------------------------------------------------------------------------




--------------------------------------- Iteration      1(   9)  ---------------------------------------


    POTLOK:  cpu time    0.5432: real time    0.5715
    SETDIJ:  cpu time    0.0273: real time    0.0273
    EDDIAG:  cpu time    0.7023: real time    0.7022
  RMM-DIIS:  cpu time    2.9859: real time    2.9825
    ORTHCH:  cpu time    0.0479: real time    0.0479
       DOS:  cpu time    0.0011: real time    0.0011
    CHARGE:  cpu time    0.1872: real time    0.1871
    MIXING:  cpu time    0.0137: real time    0.0137
    --------------------------------------------
      LOOP:  cpu time    4.5086: real time    4.5333

 eigenvalue-minimisations  :   754
 total energy-change (2. order) : 0.1845369E+01  (-0.1462377E+00)
 number of electron     252.9999674 magnetization      -1.3705551
 augmentation part      162.4304715 magnetization      -0.3054285

 Broyden mixing:
  rms(total) = 0.26556E+00    rms(broyden)= 0.26498E+00
  rms(prec ) = 0.28823E+00
  weight for this iteration     100.00

 eigenvalues of (default mixing * dielectric matrix)
  average eigenvalue GAMMA=   0.8628
  1.4782  0.7764  0.5983  0.5983

 Free energy of the ion-electron system (eV)
  ---------------------------------------------------
  alpha Z        PSCENC =        39.78082609
  Ewald energy   TEWEN  =     58676.04996180
  -Hartree energ DENC   =    -87728.05738727
  -exchange      EXHF   =         0.00000000
  -V(xc)+E(xc)   XCENC  =      1019.49524199
  PAW double counting   =     29024.84552560   -31453.94661455
  entropy T*S    EENTRO =         0.00000000
  eigenvalues    EBANDS =     -1633.30262560
  atomic energy  EATOM  =     31991.51844713
  Solvation  Ediel_sol  =         0.00000000
  ---------------------------------------------------
  free energy    TOTEN  =       -63.61662479 eV

  energy without entropy =      -63.61662479  energy(sigma->0) =      -63.61662479


--------------------------------------------------------------------------------------------------------




--------------------------------------- Iteration      1(  10)  ---------------------------------------


    POTLOK:  cpu time    0.5423: real time    0.5731
    SETDIJ:  cpu time    0.0278: real time    0.0278
    EDDIAG:  cpu time    0.7026: real time    0.7024
  RMM-DIIS:  cpu time    2.9791: real time    2.9759
    ORTHCH:  cpu time    0.0478: real time    0.0477
       DOS:  cpu time    0.0008: real time    0.0008
    CHARGE:  cpu time    0.1872: real time    0.1871
    MIXING:  cpu time    0.0147: real time    0.0146
    --------------------------------------------
      LOOP:  cpu time    4.5022: real time    4.5294

 eigenvalue-minimisations  :   754
 total energy-change (2. order) : 0.8006432E-01  (-0.2473086E-01)
 number of electron     252.9999675 magnetization      -1.0093602
 augmentation part      162.2873474 magnetization       0.0140665

 Broyden mixing:
  rms(total) = 0.16915E+00    rms(broyden)= 0.16910E+00
  rms(prec ) = 0.18439E+00
  weight for this iteration     100.00

 eigenvalues of (default mixing * dielectric matrix)
  average eigenvalue GAMMA=   1.0127
  1.7198  1.2724  0.9797  0.6086  0.4829

 Free energy of the ion-electron system (eV)
  ---------------------------------------------------
  alpha Z        PSCENC =        39.78082609
  Ewald energy   TEWEN  =     58676.04996180
  -Hartree energ DENC   =    -87737.76124860
  -exchange      EXHF   =         0.00000000
  -V(xc)+E(xc)   XCENC  =      1019.58239551
  PAW double counting   =     29112.36964174   -31547.10447310
  entropy T*S    EENTRO =         0.00000000
  eigenvalues    EBANDS =     -1617.97211105
  atomic energy  EATOM  =     31991.51844713
  Solvation  Ediel_sol  =         0.00000000
  ---------------------------------------------------
  free energy    TOTEN  =       -63.53656047 eV

  energy without entropy =      -63.53656047  energy(sigma->0) =      -63.53656047


--------------------------------------------------------------------------------------------------------




--------------------------------------- Iteration      1(  11)  ---------------------------------------


    POTLOK:  cpu time    0.5410: real time    0.5771
    SETDIJ:  cpu time    0.0272: real time    0.0272
    EDDIAG:  cpu time    0.7053: real time    0.7054
  RMM-DIIS:  cpu time    2.9931: real time    2.9899
    ORTHCH:  cpu time    0.0468: real time    0.0468
       DOS:  cpu time    0.0007: real time    0.0007
    CHARGE:  cpu time    0.1878: real time    0.1874
    MIXING:  cpu time    0.0151: real time    0.0151
    --------------------------------------------
      LOOP:  cpu time    4.5170: real time    4.5495

 eigenvalue-minimisations  :   754
 total energy-change (2. order) : 0.4212903E-01  (-0.2634881E-01)
 number of electron     252.9999675 magnetization      -1.0761599
 augmentation part      162.0090066 magnetization      -0.1225829

 Broyden mixing:
  rms(total) = 0.12850E+00    rms(broyden)= 0.12843E+00
  rms(prec ) = 0.13866E+00
  weight for this iteration     100.00

 eigenvalues of (default mixing * dielectric matrix)
  average eigenvalue GAMMA=   1.0870
  2.2399  1.2053  1.2053  0.7003  0.7003  0.4708

 Free energy of the ion-electron system (eV)
  ---------------------------------------------------
  alpha Z        PSCENC =        39.78082609
  Ewald energy   TEWEN  =     58676.04996180
  -Hartree energ DENC   =    -87745.72251518
  -exchange      EXHF   =         0.00000000
  -V(xc)+E(xc)   XCENC  =      1019.54680457
  PAW double counting   =     29342.21951272   -31790.52655292
  entropy T*S    EENTRO =         0.00000000
  eigenvalues    EBANDS =     -1596.36091566
  atomic energy  EATOM  =     31991.51844713
  Solvation  Ediel_sol  =         0.00000000
  ---------------------------------------------------
  free energy    TOTEN  =       -63.49443145 eV

  energy without entropy =      -63.49443145  energy(sigma->0) =      -63.49443145


--------------------------------------------------------------------------------------------------------




--------------------------------------- Iteration      1(  12)  ---------------------------------------


    POTLOK:  cpu time    0.5422: real time    0.5773
    SETDIJ:  cpu time    0.0275: real time    0.0275
    EDDIAG:  cpu time    0.7061: real time    0.7061
  RMM-DIIS:  cpu time    3.0061: real time    3.0030
    ORTHCH:  cpu time    0.0476: real time    0.0476
       DOS:  cpu time    0.0007: real time    0.0007
    CHARGE:  cpu time    0.1879: real time    0.1877
    MIXING:  cpu time    0.0159: real time    0.0159
    --------------------------------------------
      LOOP:  cpu time    4.5343: real time    4.5660

 eigenvalue-minimisations  :   754
 total energy-change (2. order) : 0.1276632E-01  (-0.5427151E-02)
 number of electron     252.9999675 magnetization      -1.0716325
 augmentation part      162.0305339 magnetization      -0.1483544

 Broyden mixing:
  rms(total) = 0.91370E-01    rms(broyden)= 0.91337E-01
  rms(prec ) = 0.10004E+00
  weight for this iteration     100.00

 eigenvalues of (default mixing * dielectric matrix)
  average eigenvalue GAMMA=   1.1309
  2.6642  1.2824  1.2824  0.8043  0.8043  0.6030  0.4758

 Free energy of the ion-electron system (eV)
  ---------------------------------------------------
  alpha Z        PSCENC =        39.78082609
  Ewald energy   TEWEN  =     58676.04996180
  -Hartree energ DENC   =    -87742.10047781
  -exchange      EXHF   =         0.00000000
  -V(xc)+E(xc)   XCENC  =      1019.16890826
  PAW double counting   =     29495.40735968   -31951.11513165
  entropy T*S    EENTRO =         0.00000000
  eigenvalues    EBANDS =     -1592.19155863
  atomic energy  EATOM  =     31991.51844713
  Solvation  Ediel_sol  =         0.00000000
  ---------------------------------------------------
  free energy    TOTEN  =       -63.48166512 eV

  energy without entropy =      -63.48166512  energy(sigma->0) =      -63.48166512


--------------------------------------------------------------------------------------------------------




--------------------------------------- Iteration      1(  13)  ---------------------------------------


    POTLOK:  cpu time    0.5405: real time    0.5733
    SETDIJ:  cpu time    0.0276: real time    0.0275
    EDDIAG:  cpu time    0.7066: real time    0.7067
  RMM-DIIS:  cpu time    2.9923: real time    2.9889
    ORTHCH:  cpu time    0.0478: real time    0.0477
       DOS:  cpu time    0.0006: real time    0.0006
    CHARGE:  cpu time    0.1869: real time    0.1867
    MIXING:  cpu time    0.0167: real time    0.0167
    --------------------------------------------
      LOOP:  cpu time    4.5187: real time    4.5477

 eigenvalue-minimisations  :   754
 total energy-change (2. order) : 0.8868522E-02  (-0.1728612E-02)
 number of electron     252.9999675 magnetization      -0.9983403
 augmentation part      162.0922009 magnetization      -0.0829994

 Broyden mixing:
  rms(total) = 0.52652E-01    rms(broyden)= 0.52602E-01
  rms(prec ) = 0.56429E-01
  weight for this iteration     100.00

 eigenvalues of (default mixing * dielectric matrix)
  average eigenvalue GAMMA=   1.2219
  3.3792  1.5047  1.2384  1.0673  0.7721  0.7721  0.4758  0.5657

 Free energy of the ion-electron system (eV)
  ---------------------------------------------------
  alpha Z        PSCENC =        39.78082609
  Ewald energy   TEWEN  =     58676.04996180
  -Hartree energ DENC   =    -87737.64334401
  -exchange      EXHF   =         0.00000000
  -V(xc)+E(xc)   XCENC  =      1018.84780096
  PAW double counting   =     29597.01338159   -32057.31361642
  entropy T*S    EENTRO =         0.00000000
  eigenvalues    EBANDS =     -1591.72625375
  atomic energy  EATOM  =     31991.51844713
  Solvation  Ediel_sol  =         0.00000000
  ---------------------------------------------------
  free energy    TOTEN  =       -63.47279660 eV

  energy without entropy =      -63.47279660  energy(sigma->0) =      -63.47279660


--------------------------------------------------------------------------------------------------------




--------------------------------------- Iteration      1(  14)  ---------------------------------------


    POTLOK:  cpu time    0.5719: real time    0.5717
    SETDIJ:  cpu time    0.0272: real time    0.0272
    EDDIAG:  cpu time    0.7054: real time    0.7053
  RMM-DIIS:  cpu time    2.9822: real time    2.9789
    ORTHCH:  cpu time    0.0478: real time    0.0478
       DOS:  cpu time    0.0008: real time    0.0008
    CHARGE:  cpu time    0.1877: real time    0.1875
    MIXING:  cpu time    0.0176: real time    0.0176
    --------------------------------------------
      LOOP:  cpu time    4.5409: real time    4.5371

 eigenvalue-minimisations  :   754
 total energy-change (2. order) : 0.1182593E-02  (-0.8997774E-03)
 number of electron     252.9999675 magnetization      -0.9817407
 augmentation part      162.1326574 magnetization      -0.0612687

 Broyden mixing:
  rms(total) = 0.28042E-01    rms(broyden)= 0.27982E-01
  rms(prec ) = 0.30642E-01
  weight for this iteration     100.00

 eigenvalues of (default mixing * dielectric matrix)
  average eigenvalue GAMMA=   1.3126
  4.0987  1.7274  1.3099  1.3099  0.8759  0.7497  0.7497  0.4712  0.5213

 Free energy of the ion-electron system (eV)
  ---------------------------------------------------
  alpha Z        PSCENC =        39.78082609
  Ewald energy   TEWEN  =     58676.04996180
  -Hartree energ DENC   =    -87734.50173367
  -exchange      EXHF   =         0.00000000
  -V(xc)+E(xc)   XCENC  =      1018.61464032
  PAW double counting   =     29670.41600554   -32134.07780310
  entropy T*S    EENTRO =         0.00000000
  eigenvalues    EBANDS =     -1591.27195813
  atomic energy  EATOM  =     31991.51844713
  Solvation  Ediel_sol  =         0.00000000
  ---------------------------------------------------
  free energy    TOTEN  =       -63.47161401 eV

  energy without entropy =      -63.47161401  energy(sigma->0) =      -63.47161401


--------------------------------------------------------------------------------------------------------




--------------------------------------- Iteration      1(  15)  ---------------------------------------


    POTLOK:  cpu time    0.5715: real time    0.5712
    SETDIJ:  cpu time    0.0281: real time    0.0281
    EDDIAG:  cpu time    0.7068: real time    0.7067
  RMM-DIIS:  cpu time    2.9854: real time    2.9824
    ORTHCH:  cpu time    0.0462: real time    0.0462
       DOS:  cpu time    0.0008: real time    0.0007
    CHARGE:  cpu time    0.1874: real time    0.1871
    MIXING:  cpu time    0.0189: real time    0.0189
    --------------------------------------------
      LOOP:  cpu time    4.5447: real time    4.5411

 eigenvalue-minimisations  :   754
 total energy-change (2. order) : 0.6927185E-03  (-0.4981536E-03)
 number of electron     252.9999675 magnetization      -1.0126206
 augmentation part      162.1335418 magnetization      -0.0908193

 Broyden mixing:
  rms(total) = 0.15441E-01    rms(broyden)= 0.15411E-01
  rms(prec ) = 0.16952E-01
  weight for this iteration     100.00

 eigenvalues of (default mixing * dielectric matrix)
  average eigenvalue GAMMA=   1.3436
  4.4488  1.9883  1.4977  1.1296  1.1296  0.7646  0.7646  0.7354  0.4726  0.5052

 Free energy of the ion-electron system (eV)
  ---------------------------------------------------
  alpha Z        PSCENC =        39.78082609
  Ewald energy   TEWEN  =     58676.04996180
  -Hartree energ DENC   =    -87733.46184221
  -exchange      EXHF   =         0.00000000
  -V(xc)+E(xc)   XCENC  =      1018.49422584
  PAW double counting   =     29722.29322963   -32188.57771348
  entropy T*S    EENTRO =         0.00000000
  eigenvalues    EBANDS =     -1589.56805610
  atomic energy  EATOM  =     31991.51844713
  Solvation  Ediel_sol  =         0.00000000
  ---------------------------------------------------
  free energy    TOTEN  =       -63.47092129 eV

  energy without entropy =      -63.47092129  energy(sigma->0) =      -63.47092129


--------------------------------------------------------------------------------------------------------




--------------------------------------- Iteration      1(  16)  ---------------------------------------


    POTLOK:  cpu time    0.5805: real time    0.5804
    SETDIJ:  cpu time    0.0276: real time    0.0275
    EDDIAG:  cpu time    0.7020: real time    0.7019
  RMM-DIIS:  cpu time    2.9842: real time    2.9810
    ORTHCH:  cpu time    0.0480: real time    0.0481
       DOS:  cpu time    0.0009: real time    0.0009
    CHARGE:  cpu time    0.1865: real time    0.1863
    MIXING:  cpu time    0.0202: real time    0.0201
    --------------------------------------------
      LOOP:  cpu time    4.5500: real time    4.5461

 eigenvalue-minimisations  :   754
 total energy-change (2. order) : 0.1803683E-03  (-0.1688825E-03)
 number of electron     252.9999675 magnetization      -1.0077916
 augmentation part      162.1307014 magnetization      -0.0863037

 Broyden mixing:
  rms(total) = 0.79247E-02    rms(broyden)= 0.79201E-02
  rms(prec ) = 0.85227E-02
  weight for this iteration     100.00

 eigenvalues of (default mixing * dielectric matrix)
  average eigenvalue GAMMA=   1.3580
  4.5824  1.9385  1.4770  1.3933  1.3933  0.9198  0.7739  0.7739  0.7076  0.4721
  0.5066

 Free energy of the ion-electron system (eV)
  ---------------------------------------------------
  alpha Z        PSCENC =        39.78082609
  Ewald energy   TEWEN  =     58676.04996180
  -Hartree energ DENC   =    -87732.16560973
  -exchange      EXHF   =         0.00000000
  -V(xc)+E(xc)   XCENC  =      1018.44332345
  PAW double counting   =     29744.64568829   -32212.14589847
  entropy T*S    EENTRO =         0.00000000
  eigenvalues    EBANDS =     -1589.59747948
  atomic energy  EATOM  =     31991.51844713
  Solvation  Ediel_sol  =         0.00000000
  ---------------------------------------------------
  free energy    TOTEN  =       -63.47074092 eV

  energy without entropy =      -63.47074092  energy(sigma->0) =      -63.47074092


--------------------------------------------------------------------------------------------------------




--------------------------------------- Iteration      1(  17)  ---------------------------------------


    POTLOK:  cpu time    0.5692: real time    0.5757
    SETDIJ:  cpu time    0.0275: real time    0.0274
    EDDIAG:  cpu time    0.7032: real time    0.7033
  RMM-DIIS:  cpu time    2.9897: real time    2.9864
    ORTHCH:  cpu time    0.0468: real time    0.0466
       DOS:  cpu time    0.0009: real time    0.0009
    CHARGE:  cpu time    0.1865: real time    0.1864
    MIXING:  cpu time    0.0212: real time    0.0212
    --------------------------------------------
      LOOP:  cpu time    4.5450: real time    4.5480

 eigenvalue-minimisations  :   755
 total energy-change (2. order) :-0.1267707E-03  (-0.3390107E-04)
 number of electron     252.9999675 magnetization      -0.9974670
 augmentation part      162.1336135 magnetization      -0.0751714

 Broyden mixing:
  rms(total) = 0.53241E-02    rms(broyden)= 0.53028E-02
  rms(prec ) = 0.58268E-02
  weight for this iteration     100.00

 eigenvalues of (default mixing * dielectric matrix)
  average eigenvalue GAMMA=   1.3709
  4.6066  1.9616  1.9616  1.6349  1.2250  1.1008  0.7726  0.7726  0.7183  0.7183
  0.4722  0.5059

 Free energy of the ion-electron system (eV)
  ---------------------------------------------------
  alpha Z        PSCENC =        39.78082609
  Ewald energy   TEWEN  =     58676.04996180
  -Hartree energ DENC   =    -87731.33420227
  -exchange      EXHF   =         0.00000000
  -V(xc)+E(xc)   XCENC  =      1018.42054498
  PAW double counting   =     29751.11469836   -32218.95159150
  entropy T*S    EENTRO =         0.00000000
  eigenvalues    EBANDS =     -1590.06955228
  atomic energy  EATOM  =     31991.51844713
  Solvation  Ediel_sol  =         0.00000000
  ---------------------------------------------------
  free energy    TOTEN  =       -63.47086769 eV

  energy without entropy =      -63.47086769  energy(sigma->0) =      -63.47086769


--------------------------------------------------------------------------------------------------------




--------------------------------------- Iteration      1(  18)  ---------------------------------------


    POTLOK:  cpu time    0.5773: real time    0.5772
    SETDIJ:  cpu time    0.0271: real time    0.0271
    EDDIAG:  cpu time    0.7049: real time    0.7049
  RMM-DIIS:  cpu time    2.9977: real time    2.9946
    ORTHCH:  cpu time    0.0467: real time    0.0467
       DOS:  cpu time    0.0011: real time    0.0011
    CHARGE:  cpu time    0.1876: real time    0.1873
    MIXING:  cpu time    0.0223: real time    0.0223
    --------------------------------------------
      LOOP:  cpu time    4.5646: real time    4.5612

 eigenvalue-minimisations  :   754
 total energy-change (2. order) :-0.7949636E-04  (-0.1746820E-04)
 number of electron     252.9999675 magnetization      -0.9968054
 augmentation part      162.1343803 magnetization      -0.0737859

 Broyden mixing:
  rms(total) = 0.37352E-02    rms(broyden)= 0.37159E-02
  rms(prec ) = 0.40862E-02
  weight for this iteration     100.00

 eigenvalues of (default mixing * dielectric matrix)
  average eigenvalue GAMMA=   1.3967
  4.5759  2.3237  2.3237  1.7402  1.2276  1.2276  0.7747  0.7747  0.8037  0.8037
  0.4721  0.5064  0.6026

 Free energy of the ion-electron system (eV)
  ---------------------------------------------------
  alpha Z        PSCENC =        39.78082609
  Ewald energy   TEWEN  =     58676.04996180
  -Hartree energ DENC   =    -87731.05819583
  -exchange      EXHF   =         0.00000000
  -V(xc)+E(xc)   XCENC  =      1018.41269048
  PAW double counting   =     29753.80974959   -32221.79684477
  entropy T*S    EENTRO =         0.00000000
  eigenvalues    EBANDS =     -1590.18758169
  atomic energy  EATOM  =     31991.51844713
  Solvation  Ediel_sol  =         0.00000000
  ---------------------------------------------------
  free energy    TOTEN  =       -63.47094719 eV

  energy without entropy =      -63.47094719  energy(sigma->0) =      -63.47094719


--------------------------------------------------------------------------------------------------------




--------------------------------------- Iteration      1(  19)  ---------------------------------------


    POTLOK:  cpu time    0.5684: real time    0.5759
    SETDIJ:  cpu time    0.0274: real time    0.0274
    EDDIAG:  cpu time    0.7039: real time    0.7039
  RMM-DIIS:  cpu time    2.9969: real time    2.9938
    ORTHCH:  cpu time    0.0474: real time    0.0473
       DOS:  cpu time    0.0010: real time    0.0010
    CHARGE:  cpu time    0.1876: real time    0.1875
    MIXING:  cpu time    0.0238: real time    0.0237
    --------------------------------------------
      LOOP:  cpu time    4.5565: real time    4.5606

 eigenvalue-minimisations  :   754
 total energy-change (2. order) :-0.2155926E-04  (-0.1555030E-04)
 number of electron     252.9999675 magnetization      -1.0005873
 augmentation part      162.1350231 magnetization      -0.0767602

 Broyden mixing:
  rms(total) = 0.23072E-02    rms(broyden)= 0.22971E-02
  rms(prec ) = 0.25057E-02
  weight for this iteration     100.00

 eigenvalues of (default mixing * dielectric matrix)
  average eigenvalue GAMMA=   1.4184
  4.7074  2.5188  2.5188  1.8938  1.3178  1.3178  0.9568  0.7711  0.7711  0.8506
  0.7209  0.4723  0.5048  0.5364

 Free energy of the ion-electron system (eV)
  ---------------------------------------------------
  alpha Z        PSCENC =        39.78082609
  Ewald energy   TEWEN  =     58676.04996180
  -Hartree energ DENC   =    -87731.00365276
  -exchange      EXHF   =         0.00000000
  -V(xc)+E(xc)   XCENC  =      1018.40994097
  PAW double counting   =     29754.30958891   -32222.33437263
  entropy T*S    EENTRO =         0.00000000
  eigenvalues    EBANDS =     -1590.20170827
  atomic energy  EATOM  =     31991.51844713
  Solvation  Ediel_sol  =         0.00000000
  ---------------------------------------------------
  free energy    TOTEN  =       -63.47096875 eV

  energy without entropy =      -63.47096875  energy(sigma->0) =      -63.47096875


--------------------------------------------------------------------------------------------------------




--------------------------------------- Iteration      1(  20)  ---------------------------------------


    POTLOK:  cpu time    0.5842: real time    0.5842
    SETDIJ:  cpu time    0.0275: real time    0.0274
    EDDIAG:  cpu time    0.7056: real time    0.7056
  RMM-DIIS:  cpu time    2.9864: real time    2.9833
    ORTHCH:  cpu time    0.0465: real time    0.0465
       DOS:  cpu time    0.0009: real time    0.0008
    CHARGE:  cpu time    0.1874: real time    0.1872
    MIXING:  cpu time    0.0249: real time    0.0249
    --------------------------------------------
      LOOP:  cpu time    4.5636: real time    4.5601

 eigenvalue-minimisations  :   754
 total energy-change (2. order) :-0.9323041E-05  (-0.9112769E-05)
 number of electron     252.9999675 magnetization      -1.0014426
 augmentation part      162.1335067 magnetization      -0.0771820

 Broyden mixing:
  rms(total) = 0.12185E-02    rms(broyden)= 0.12120E-02
  rms(prec ) = 0.13235E-02
  weight for this iteration     100.00

 eigenvalues of (default mixing * dielectric matrix)
  average eigenvalue GAMMA=   1.4196
  4.8901  2.4056  2.4056  2.1870  1.5587  1.2092  1.2092  0.7760  0.7760  0.8432
  0.8432  0.6887  0.4722  0.5063  0.5224

 Free energy of the ion-electron system (eV)
  ---------------------------------------------------
  alpha Z        PSCENC =        39.78082609
  Ewald energy   TEWEN  =     58676.04996180
  -Hartree energ DENC   =    -87731.01042972
  -exchange      EXHF   =         0.00000000
  -V(xc)+E(xc)   XCENC  =      1018.40867440
  PAW double counting   =     29755.34045701   -32223.45017766
  entropy T*S    EENTRO =         0.00000000
  eigenvalues    EBANDS =     -1590.10873712
  atomic energy  EATOM  =     31991.51844713
  Solvation  Ediel_sol  =         0.00000000
  ---------------------------------------------------
  free energy    TOTEN  =       -63.47097807 eV

  energy without entropy =      -63.47097807  energy(sigma->0) =      -63.47097807


--------------------------------------------------------------------------------------------------------




--------------------------------------- Iteration      1(  21)  ---------------------------------------


    POTLOK:  cpu time    0.5476: real time    0.5843
    SETDIJ:  cpu time    0.0274: real time    0.0273
    EDDIAG:  cpu time    0.7041: real time    0.7040
  RMM-DIIS:  cpu time    2.9859: real time    2.9826
    ORTHCH:  cpu time    0.0473: real time    0.0473
       DOS:  cpu time    0.0008: real time    0.0008
    CHARGE:  cpu time    0.1875: real time    0.1873
    MIXING:  cpu time    0.0266: real time    0.0266
    --------------------------------------------
      LOOP:  cpu time    4.5269: real time    4.5600

 eigenvalue-minimisations  :   754
 total energy-change (2. order) :-0.8684721E-05  (-0.1248535E-05)
 number of electron     252.9999675 magnetization      -1.0001787
 augmentation part      162.1329232 magnetization      -0.0760868

 Broyden mixing:
  rms(total) = 0.60100E-03    rms(broyden)= 0.60067E-03
  rms(prec ) = 0.65121E-03
  weight for this iteration     100.00

 eigenvalues of (default mixing * dielectric matrix)
  average eigenvalue GAMMA=   1.4575
  4.9241  2.9499  2.3931  2.3931  1.6214  1.3032  1.3032  0.9984  0.7775  0.7775
  0.8504  0.8504  0.6829  0.4722  0.5058  0.5166

 Free energy of the ion-electron system (eV)
  ---------------------------------------------------
  alpha Z        PSCENC =        39.78082609
  Ewald energy   TEWEN  =     58676.04996180
  -Hartree energ DENC   =    -87730.87979063
  -exchange      EXHF   =         0.00000000
  -V(xc)+E(xc)   XCENC  =      1018.40592731
  PAW double counting   =     29756.49578962   -32224.68453317
  entropy T*S    EENTRO =         0.00000000
  eigenvalues    EBANDS =     -1590.15761492
  atomic energy  EATOM  =     31991.51844713
  Solvation  Ediel_sol  =         0.00000000
  ---------------------------------------------------
  free energy    TOTEN  =       -63.47098676 eV

  energy without entropy =      -63.47098676  energy(sigma->0) =      -63.47098676


--------------------------------------------------------------------------------------------------------




--------------------------------------- Iteration      1(  22)  ---------------------------------------


    POTLOK:  cpu time    0.5430: real time    0.5734
    SETDIJ:  cpu time    0.0273: real time    0.0273
    EDDIAG:  cpu time    0.7053: real time    0.7053
  RMM-DIIS:  cpu time    2.2115: real time    2.2092
    ORTHCH:  cpu time    0.0470: real time    0.0470
       DOS:  cpu time    0.0009: real time    0.0009
    CHARGE:  cpu time    0.1875: real time    0.1873
    MIXING:  cpu time    0.0280: real time    0.0280
    --------------------------------------------
      LOOP:  cpu time    3.7505: real time    3.7784

 eigenvalue-minimisations  :   539
 total energy-change (2. order) :-0.1602744E-05  (-0.3151937E-06)
 number of electron     252.9999675 magnetization      -0.9999692
 augmentation part      162.1332335 magnetization      -0.0759492

 Broyden mixing:
  rms(total) = 0.35083E-03    rms(broyden)= 0.35048E-03
  rms(prec ) = 0.37728E-03
  weight for this iteration     100.00

 eigenvalues of (default mixing * dielectric matrix)
  average eigenvalue GAMMA=   1.4665
  4.9068  3.4816  2.3895  2.3895  1.7152  1.3438  1.3438  1.0419  1.0419  0.7737
  0.7737  0.7767  0.7767  0.6806  0.4722  0.5053  0.5174

 Free energy of the ion-electron system (eV)
  ---------------------------------------------------
  alpha Z        PSCENC =        39.78082609
  Ewald energy   TEWEN  =     58676.04996180
  -Hartree energ DENC   =    -87730.78964038
  -exchange      EXHF   =         0.00000000
  -V(xc)+E(xc)   XCENC  =      1018.40442834
  PAW double counting   =     29756.62142343   -32224.82426285
  entropy T*S    EENTRO =         0.00000000
  eigenvalues    EBANDS =     -1590.23217193
  atomic energy  EATOM  =     31991.51844713
  Solvation  Ediel_sol  =         0.00000000
  ---------------------------------------------------
  free energy    TOTEN  =       -63.47098836 eV

  energy without entropy =      -63.47098836  energy(sigma->0) =      -63.47098836


--------------------------------------------------------------------------------------------------------




--------------------------------------- Iteration      1(  23)  ---------------------------------------


    POTLOK:  cpu time    0.5440: real time    0.5783
    SETDIJ:  cpu time    0.0272: real time    0.0271
    EDDIAG:  cpu time    0.7045: real time    0.7045
  RMM-DIIS:  cpu time    1.9747: real time    1.9726
    ORTHCH:  cpu time    0.0546: real time    0.0545
       DOS:  cpu time    0.0005: real time    0.0005
    --------------------------------------------
      LOOP:  cpu time    3.3055: real time    3.3376

 eigenvalue-minimisations  :   473
 total energy-change (2. order) :-0.2469351E-06  (-0.1505757E-06)
 number of electron     252.9999675 magnetization      -0.9999692
 augmentation part      162.1332335 magnetization      -0.0759492

 Free energy of the ion-electron system (eV)
  ---------------------------------------------------
  alpha Z        PSCENC =        39.78082609
  Ewald energy   TEWEN  =     58676.04996180
  -Hartree energ DENC   =    -87730.76809141
  -exchange      EXHF   =         0.00000000
  -V(xc)+E(xc)   XCENC  =      1018.40432325
  PAW double counting   =     29756.46619832   -32224.66587833
  entropy T*S    EENTRO =         0.00000000
  eigenvalues    EBANDS =     -1590.25677546
  atomic energy  EATOM  =     31991.51844713
  Solvation  Ediel_sol  =         0.00000000
  ---------------------------------------------------
  free energy    TOTEN  =       -63.47098861 eV

  energy without entropy =      -63.47098861  energy(sigma->0) =      -63.47098861


--------------------------------------------------------------------------------------------------------




 average (electrostatic) potential at core
  the test charge radii are     0.9430
  (the norm of the test charge is              1.0000)
       1 -74.2811       2 -74.5644       3 -74.5054       4 -74.7706       5 -74.8345
       6 -74.5241       7 -74.6957       8 -74.5704       9 -74.4684      10 -74.8437
      11 -74.5906      12 -74.9009      13 -74.8712      14 -74.5791      15 -74.6752
      16 -74.7264      17 -74.5286      18 -74.7425      19 -74.7849      20 -74.7413
      21 -74.8001      22 -74.7509      23 -74.2583
 
 
 
 E-fermi :  -3.5883     XC(G=0):  -0.7591     alpha+bet : -0.3750


 spin component 1

 k-point     1 :       0.0000    0.0000    0.0000
  band No.  band energies     occupation 
      1     -11.1994      1.00000
      2      -9.7136      1.00000
      3      -9.6155      1.00000
      4      -9.2527      1.00000
      5      -8.5036      1.00000
      6      -8.2911      1.00000
      7      -8.2468      1.00000
      8      -8.2047      1.00000
      9      -8.1425      1.00000
     10      -7.9874      1.00000
     11      -7.8346      1.00000
     12      -7.7618      1.00000
     13      -7.7105      1.00000
     14      -7.6413      1.00000
     15      -7.5377      1.00000
     16      -7.4513      1.00000
     17      -7.4146      1.00000
     18      -7.3762      1.00000
     19      -7.3064      1.00000
     20      -7.2695      1.00000
     21      -7.2338      1.00000
     22      -7.2096      1.00000
     23      -7.1626      1.00000
     24      -7.1336      1.00000
     25      -7.1075      1.00000
     26      -7.0908      1.00000
     27      -7.0772      1.00000
     28      -7.0413      1.00000
     29      -7.0058      1.00000
     30      -6.9784      1.00000
     31      -6.9624      1.00000
     32      -6.9079      1.00000
     33      -6.8582      1.00000
     34      -6.8450      1.00000
     35      -6.8257      1.00000
     36      -6.7756      1.00000
     37      -6.7414      1.00000
     38      -6.7280      1.00000
     39      -6.7035      1.00000
     40      -6.6682      1.00000
     41      -6.6238      1.00000
     42      -6.5918      1.00000
     43      -6.5561      1.00000
     44      -6.5417      1.00000
     45      -6.4720      1.00000
     46      -6.4633      1.00000
     47      -6.4341      1.00000
     48      -6.3973      1.00000
     49      -6.3635      1.00000
     50      -6.3397      1.00000
     51      -6.3199      1.00000
     52      -6.3071      1.00000
     53      -6.2625      1.00000
     54      -6.2521      1.00000
     55      -6.2456      1.00000
     56      -6.2335      1.00000
     57      -6.1893      1.00000
     58      -6.1776      1.00000
     59      -6.1599      1.00000
     60      -6.1327      1.00000
     61      -6.1017      1.00000
     62      -6.0946      1.00000
     63      -6.0819      1.00000
     64      -6.0441      1.00000
     65      -6.0110      1.00000
     66      -5.9746      1.00000
     67      -5.9595      1.00000
     68      -5.9038      1.00000
     69      -5.8822      1.00000
     70      -5.8640      1.00000
     71      -5.8602      1.00000
     72      -5.8337      1.00000
     73      -5.8254      1.00000
     74      -5.8043      1.00000
     75      -5.7777      1.00000
     76      -5.7647      1.00000
     77      -5.7373      1.00000
     78      -5.7190      1.00000
     79      -5.7060      1.00000
     80      -5.6964      1.00000
     81      -5.6954      1.00000
     82      -5.6685      1.00000
     83      -5.6536      1.00000
     84      -5.6368      1.00000
     85      -5.6088      1.00000
     86      -5.6019      1.00000
     87      -5.5826      1.00000
     88      -5.5599      1.00000
     89      -5.5576      1.00000
     90      -5.5548      1.00000
     91      -5.5280      1.00000
     92      -5.5259      1.00000
     93      -5.5037      1.00000
     94      -5.4990      1.00000
     95      -5.4840      1.00000
     96      -5.4675      1.00000
     97      -5.4444      1.00000
     98      -5.4179      1.00000
     99      -5.4108      1.00000
    100      -5.4061      1.00000
    101      -5.3891      1.00000
    102      -5.3797      1.00000
    103      -5.3746      1.00000
    104      -5.3701      1.00000
    105      -5.3587      1.00000
    106      -5.3275      1.00000
    107      -5.3166      1.00000
    108      -5.3134      1.00000
    109      -5.3046      1.00000
    110      -5.2914      1.00000
    111      -5.2775      1.00000
    112      -5.2551      1.00000
    113      -5.2407      1.00000
    114      -5.2238      1.00000
    115      -5.1938      1.00000
    116      -5.1823      1.00000
    117      -5.1672      1.00000
    118      -5.1413      1.00000
    119      -5.1291      1.00000
    120      -5.0724      1.00000
    121      -5.0090      1.00000
    122      -4.9978      1.00000
    123      -4.8847      1.00000
    124      -4.8070      1.00000
    125      -4.1845      1.00000
    126      -4.0093      1.00000
    127      -3.5307      0.00000
    128      -3.4517      0.00000
    129      -3.2686      0.00000
    130      -3.2108      0.00000
    131      -3.1145      0.00000
    132      -2.9078      0.00000
    133      -2.7381      0.00000
    134      -2.5579      0.00000
    135      -2.2626      0.00000
    136      -1.9822      0.00000
    137      -1.6738      0.00000
    138      -1.4293      0.00000
    139      -1.3075      0.00000
    140      -1.2028      0.00000
    141      -1.1117      0.00000
    142      -1.0731      0.00000
    143      -0.8474      0.00000
    144      -0.7713      0.00000
    145      -0.6788      0.00000
    146      -0.5572      0.00000
    147      -0.5343      0.00000
    148      -0.4126      0.00000
    149      -0.2634      0.00000
    150       0.0908      0.00000
    151       0.2442      0.00000
    152       0.3173      0.00000
    153       0.4097      0.00000
    154       0.4488      0.00000
    155       0.4630      0.00000
    156       0.4982      0.00000
    157       0.5317      0.00000
    158       0.5865      0.00000
    159       0.6583      0.00000
    160       0.7086      0.00000
    161       0.7492      0.00000
    162       0.7698      0.00000
    163       0.7856      0.00000
    164       0.8023      0.00000
    165       0.8272      0.00000
    166       0.8328      0.00000
    167       0.8594      0.00000
    168       0.8726      0.00000
    169       0.8960      0.00000
    170       0.9001      0.00000
    171       0.9321      0.00000
    172       0.9954      0.00000
    173       1.0295      0.00000
    174       1.0602      0.00000
    175       1.1071      0.00000
    176       1.1229      0.00000
    177       1.1579      0.00000
    178       1.1673      0.00000
    179       1.1980      0.00000
    180       1.2117      0.00000
    181       1.2639      0.00000
    182       1.3333      0.00000
    183       1.3699      0.00000
    184       1.4069      0.00000
    185       1.4580      0.00000
    186       1.5077      0.00000
    187       1.5284      0.00000
    188       1.5814      0.00000

 spin component 2

 k-point     1 :       0.0000    0.0000    0.0000
  band No.  band energies     occupation 
      1     -11.2227      1.00000
      2      -9.7332      1.00000
      3      -9.6426      1.00000
      4      -9.2841      1.00000
      5      -8.5165      1.00000
      6      -8.3164      1.00000
      7      -8.2713      1.00000
      8      -8.2208      1.00000
      9      -8.1636      1.00000
     10      -8.0123      1.00000
     11      -7.8554      1.00000
     12      -7.7747      1.00000
     13      -7.7308      1.00000
     14      -7.6706      1.00000
     15      -7.5576      1.00000
     16      -7.4646      1.00000
     17      -7.4376      1.00000
     18      -7.4003      1.00000
     19      -7.3248      1.00000
     20      -7.2884      1.00000
     21      -7.2524      1.00000
     22      -7.2262      1.00000
     23      -7.1766      1.00000
     24      -7.1518      1.00000
     25      -7.1255      1.00000
     26      -7.1091      1.00000
     27      -7.0967      1.00000
     28      -7.0608      1.00000
     29      -7.0180      1.00000
     30      -6.9946      1.00000
     31      -6.9812      1.00000
     32      -6.9297      1.00000
     33      -6.8741      1.00000
     34      -6.8624      1.00000
     35      -6.8433      1.00000
     36      -6.7918      1.00000
     37      -6.7590      1.00000
     38      -6.7435      1.00000
     39      -6.7224      1.00000
     40      -6.6831      1.00000
     41      -6.6401      1.00000
     42      -6.6088      1.00000
     43      -6.5730      1.00000
     44      -6.5610      1.00000
     45      -6.4859      1.00000
     46      -6.4799      1.00000
     47      -6.4487      1.00000
     48      -6.4154      1.00000
     49      -6.3802      1.00000
     50      -6.3510      1.00000
     51      -6.3345      1.00000
     52      -6.3239      1.00000
     53      -6.2806      1.00000
     54      -6.2652      1.00000
     55      -6.2634      1.00000
     56      -6.2490      1.00000
     57      -6.2054      1.00000
     58      -6.1940      1.00000
     59      -6.1772      1.00000
     60      -6.1480      1.00000
     61      -6.1159      1.00000
     62      -6.1074      1.00000
     63      -6.0965      1.00000
     64      -6.0594      1.00000
     65      -6.0246      1.00000
     66      -5.9904      1.00000
     67      -5.9726      1.00000
     68      -5.9221      1.00000
     69      -5.8992      1.00000
     70      -5.8768      1.00000
     71      -5.8734      1.00000
     72      -5.8456      1.00000
     73      -5.8370      1.00000
     74      -5.8200      1.00000
     75      -5.7912      1.00000
     76      -5.7758      1.00000
     77      -5.7545      1.00000
     78      -5.7325      1.00000
     79      -5.7199      1.00000
     80      -5.7093      1.00000
     81      -5.7071      1.00000
     82      -5.6836      1.00000
     83      -5.6715      1.00000
     84      -5.6485      1.00000
     85      -5.6222      1.00000
     86      -5.6158      1.00000
     87      -5.5960      1.00000
     88      -5.5759      1.00000
     89      -5.5734      1.00000
     90      -5.5704      1.00000
     91      -5.5438      1.00000
     92      -5.5386      1.00000
     93      -5.5221      1.00000
     94      -5.5141      1.00000
     95      -5.4977      1.00000
     96      -5.4857      1.00000
     97      -5.4585      1.00000
     98      -5.4350      1.00000
     99      -5.4262      1.00000
    100      -5.4226      1.00000
    101      -5.4061      1.00000
    102      -5.3959      1.00000
    103      -5.3894      1.00000
    104      -5.3804      1.00000
    105      -5.3747      1.00000
    106      -5.3442      1.00000
    107      -5.3333      1.00000
    108      -5.3271      1.00000
    109      -5.3176      1.00000
    110      -5.3060      1.00000
    111      -5.2955      1.00000
    112      -5.2702      1.00000
    113      -5.2552      1.00000
    114      -5.2427      1.00000
    115      -5.2081      1.00000
    116      -5.1995      1.00000
    117      -5.1816      1.00000
    118      -5.1592      1.00000
    119      -5.1474      1.00000
    120      -5.0862      1.00000
    121      -5.0522      1.00000
    122      -5.0368      1.00000
    123      -4.9168      1.00000
    124      -4.8258      1.00000
    125      -4.2104      1.00000
    126      -4.0482      1.00000
    127      -3.6060      1.00000
    128      -3.5643      0.00000
    129      -3.3139      0.00000
    130      -3.2617      0.00000
    131      -3.1436      0.00000
    132      -2.9468      0.00000
    133      -2.7890      0.00000
    134      -2.5842      0.00000
    135      -2.2930      0.00000
    136      -2.0095      0.00000
    137      -1.7686      0.00000
    138      -1.5108      0.00000
    139      -1.4097      0.00000
    140      -1.2653      0.00000
    141      -1.2013      0.00000
    142      -1.0988      0.00000
    143      -0.8828      0.00000
    144      -0.8035      0.00000
    145      -0.7133      0.00000
    146      -0.5966      0.00000
    147      -0.5697      0.00000
    148      -0.4486      0.00000
    149      -0.2920      0.00000
    150       0.0706      0.00000
    151       0.1965      0.00000
    152       0.2409      0.00000
    153       0.3842      0.00000
    154       0.4217      0.00000
    155       0.4295      0.00000
    156       0.4818      0.00000
    157       0.4957      0.00000
    158       0.5644      0.00000
    159       0.6066      0.00000
    160       0.6684      0.00000
    161       0.7330      0.00000
    162       0.7364      0.00000
    163       0.7709      0.00000
    164       0.7864      0.00000
    165       0.7927      0.00000
    166       0.8226      0.00000
    167       0.8449      0.00000
    168       0.8513      0.00000
    169       0.8771      0.00000
    170       0.8843      0.00000
    171       0.9148      0.00000
    172       0.9722      0.00000
    173       1.0102      0.00000
    174       1.0304      0.00000
    175       1.0878      0.00000
    176       1.1055      0.00000
    177       1.1412      0.00000
    178       1.1521      0.00000
    179       1.1729      0.00000
    180       1.1971      0.00000
    181       1.2432      0.00000
    182       1.3006      0.00000
    183       1.3349      0.00000
    184       1.3713      0.00000
    185       1.4224      0.00000
    186       1.4683      0.00000
    187       1.4876      0.00000
    188       1.5531      0.00000


--------------------------------------------------------------------------------------------------------


 soft charge-density along one line, spin component           1
         0         1         2         3         4         5         6         7         8         9
 total charge-density along one line
 
 soft charge-density along one line, spin component           2
         0         1         2         3         4         5         6         7         8         9
 total charge-density along one line
 
 pseudopotential strength for first ion, spin component:           1
-10.569   0.013  -0.018   0.007   0.004   1.053  -0.010   0.013
  0.013 -10.574  -0.000   0.015  -0.001  -0.010   1.056  -0.000
 -0.018  -0.000 -10.537   0.010  -0.020   0.013  -0.000   1.029
  0.007   0.015   0.010 -10.531   0.013  -0.005  -0.012  -0.007
  0.004  -0.001  -0.020   0.013 -10.571  -0.003   0.001   0.015
  1.053  -0.010   0.013  -0.005  -0.003   6.272   0.006  -0.009
 -0.010   1.056  -0.000  -0.012   0.001   0.006   6.270   0.000
  0.013  -0.000   1.029  -0.007   0.015  -0.009   0.000   6.287
 -0.005  -0.012  -0.007   1.024  -0.010   0.004   0.008   0.005
 -0.003   0.001   0.015  -0.010   1.054   0.002  -0.001  -0.008
 -0.003  -0.001  -0.003  -0.004  -0.004   0.001   0.001  -0.001
 -0.006  -0.002  -0.005  -0.007  -0.007   0.001   0.002  -0.002
  0.002  -0.001   0.011  -0.000   0.018  -0.002   0.001  -0.006
 -0.000  -0.017  -0.001   0.001  -0.000  -0.000   0.008   0.001
 -0.018  -0.000  -0.001  -0.002   0.001   0.009  -0.000   0.000
  0.001  -0.001   0.011  -0.000   0.018  -0.001   0.001  -0.005
[...]
 -0.001   1.945  -0.004   0.003  -0.001  -0.000  -0.006   0.003  -0.000  -0.004  -0.004   0.002   0.009   0.088   0.005  -0.004
 -0.002  -0.004   1.950   0.006   0.003   0.003   0.003  -0.024  -0.002   0.003   0.001   0.000  -0.034   0.015   0.014   0.020
  0.005   0.003   0.006   1.951   0.007  -0.004  -0.000  -0.003  -0.019  -0.005   0.009   0.005   0.005  -0.019   0.004   0.000
 -0.001  -0.001   0.003   0.007   1.945  -0.002  -0.004   0.003  -0.005  -0.014   0.013  -0.002  -0.072  -0.002  -0.027   0.035
 -0.011  -0.000   0.003  -0.004  -0.002   0.009  -0.001   0.001   0.001  -0.001  -0.010   0.004  -0.005  -0.003   0.022   0.001
 -0.000  -0.006   0.003  -0.000  -0.004  -0.001   0.009   0.000  -0.002   0.000   0.004  -0.001   0.001   0.021  -0.003  -0.000
  0.003   0.003  -0.024  -0.003   0.003   0.001   0.000   0.005  -0.000   0.002  -0.020   0.003  -0.012   0.002   0.003   0.001
 -0.004  -0.000  -0.002  -0.019  -0.005   0.001  -0.002  -0.000   0.004  -0.001  -0.021   0.002  -0.002  -0.007   0.005   0.000
 -0.002  -0.004   0.003  -0.005  -0.014  -0.001   0.000   0.002  -0.001   0.009  -0.031   0.004  -0.021   0.002  -0.009   0.001
 -0.008  -0.004   0.001   0.009   0.013  -0.010   0.004  -0.020  -0.021  -0.031   1.690  -0.087   0.277   0.035  -0.070  -0.034
 -0.002   0.002   0.000   0.005  -0.002   0.004  -0.001   0.003   0.002   0.004  -0.087   0.010  -0.029  -0.003   0.012   0.003
 -0.011   0.009  -0.034   0.005  -0.072  -0.005   0.001  -0.012  -0.002  -0.021   0.277  -0.029   0.106  -0.001  -0.007  -0.011
  0.005   0.088   0.015  -0.019  -0.002  -0.003   0.021   0.002  -0.007   0.002   0.035  -0.003  -0.001   0.073  -0.018  -0.001
  0.075   0.005   0.014   0.004  -0.027   0.022  -0.003   0.003   0.005  -0.009  -0.070   0.012  -0.007  -0.018   0.083   0.002
  0.006  -0.004   0.020   0.000   0.035   0.001  -0.000   0.001   0.000   0.001  -0.034   0.003  -0.011  -0.001   0.002   0.002
  0.000  -0.036  -0.005   0.007  -0.001   0.000  -0.001  -0.000   0.000  -0.000  -0.004   0.000  -0.001  -0.005   0.001   0.000
 -0.036   0.000  -0.004  -0.005   0.008  -0.001   0.000  -0.000  -0.000   0.000   0.010  -0.001   0.002   0.001  -0.006  -0.000
 total augmentation occupancy for first ion, spin component:           2
 -0.002   0.003   0.001  -0.001   0.003   0.000  -0.001  -0.000   0.001  -0.001  -0.000   0.000   0.002  -0.005   0.005   0.000
  0.003  -0.004  -0.002   0.002  -0.004  -0.001   0.001   0.001  -0.001   0.001  -0.000  -0.000  -0.003   0.006  -0.006  -0.000
  0.001  -0.002   0.000   0.000  -0.001  -0.000   0.001  -0.000   0.000   0.001  -0.000   0.000  -0.001   0.002  -0.002  -0.000
 -0.001   0.002   0.000  -0.000   0.001   0.001  -0.001   0.000  -0.000  -0.000   0.000  -0.000   0.000  -0.002   0.002  -0.000
  0.003  -0.004  -0.001   0.001  -0.003  -0.001   0.001   0.001  -0.000   0.001  -0.001   0.000  -0.003   0.006  -0.006  -0.000
  0.000  -0.001  -0.000   0.001  -0.001  -0.000   0.000   0.000  -0.000   0.000  -0.001   0.000  -0.001   0.001  -0.001   0.000
 -0.001   0.001   0.001  -0.001   0.001   0.000  -0.000  -0.000   0.000  -0.000   0.001  -0.000   0.001  -0.002   0.002  -0.000
 -0.000   0.001  -0.000   0.000   0.001   0.000  -0.000  -0.000   0.000  -0.000  -0.000   0.000   0.000  -0.001   0.001   0.000
  0.001  -0.001   0.000  -0.000  -0.000  -0.000   0.000   0.000  -0.000   0.000   0.001  -0.000  -0.000   0.001  -0.001  -0.000
 -0.001   0.001   0.001  -0.000   0.001   0.000  -0.000  -0.000   0.000  -0.000  -0.000   0.000   0.001  -0.001   0.001   0.000
 -0.000  -0.000  -0.000   0.000  -0.001  -0.001   0.001  -0.000   0.001  -0.000   0.000   0.001   0.001   0.001  -0.001   0.000
  0.000  -0.000   0.000  -0.000   0.000   0.000  -0.000   0.000  -0.000   0.000   0.001  -0.000   0.000   0.000  -0.000  -0.000
  0.002  -0.003  -0.001   0.000  -0.003  -0.001   0.001   0.000  -0.000   0.001   0.001   0.000  -0.002   0.004  -0.004  -0.000
 -0.005   0.006   0.002  -0.002   0.006   0.001  -0.002  -0.001   0.001  -0.001   0.001   0.000   0.004  -0.009   0.008   0.000
  0.005  -0.006  -0.002   0.002  -0.006  -0.001   0.002   0.001  -0.001   0.001  -0.001  -0.000  -0.004   0.008  -0.008  -0.000
  0.000  -0.000  -0.000  -0.000  -0.000   0.000  -0.000   0.000  -0.000   0.000   0.000  -0.000  -0.000   0.000  -0.000  -0.000
 -0.000   0.000   0.000  -0.000   0.000  -0.000  -0.000  -0.000  -0.000   0.000   0.000  -0.000  -0.000   0.000  -0.000   0.000
  0.000  -0.000  -0.000   0.000  -0.000   0.000  -0.000  -0.000   0.000  -0.000  -0.000   0.000   0.000  -0.000   0.000  -0.000


------------------------ aborting loop because EDIFF is reached ----------------------------------------


 


 total charge     
 
# of ion       s       p       d       tot
------------------------------------------
    1        0.495   0.135   9.266   9.897
    2        0.459   0.229   9.234   9.922
    3        0.476   0.187   9.253   9.916
    4        0.467   0.294   9.212   9.973
    5        0.448   0.312   9.210   9.971
    6        0.474   0.194   9.248   9.916
    7        0.449   0.309   9.217   9.974
    8        0.455   0.191   9.270   9.916
    9        0.457   0.186   9.266   9.910
   10        0.448   0.327   9.201   9.976
   11        0.474   0.178   9.256   9.908
   12        0.447   0.376   9.219  10.042
   13        0.454   0.297   9.223   9.973
   14        0.455   0.204   9.261   9.920
   15        0.440   0.257   9.235   9.932
   16        0.433   0.250   9.229   9.912
   17        0.462   0.185   9.258   9.904
   18        0.464   0.259   9.211   9.934
   19        0.439   0.286   9.212   9.936
   20        0.462   0.213   9.252   9.926
   21        0.455   0.245   9.237   9.936
   22        0.456   0.267   9.231   9.954
   23        0.506   0.096   9.277   9.879
--------------------------------------------------
tot         10.575   5.475 212.478 228.528
 


 magnetization (x)
 
# of ion       s       p       d       tot
------------------------------------------
    1        0.001  -0.011  -0.011  -0.022
    2       -0.027  -0.002   0.003  -0.026
    3       -0.027  -0.010   0.003  -0.034
    4       -0.002  -0.007   0.001  -0.008
    5        0.000   0.000  -0.015  -0.014
    6       -0.001  -0.003  -0.000  -0.004
    7       -0.000  -0.004  -0.005  -0.009
    8       -0.004  -0.014  -0.002  -0.020
    9       -0.007  -0.006  -0.004  -0.018
   10        0.001   0.001  -0.021  -0.019
   11       -0.014  -0.002  -0.004  -0.021
   12       -0.003  -0.000  -0.016  -0.019
   13       -0.002  -0.005  -0.015  -0.022
   14       -0.008  -0.000  -0.001  -0.009
   15       -0.004  -0.015  -0.001  -0.019
   16       -0.014  -0.016   0.000  -0.030
   17       -0.002  -0.016   0.002  -0.016
   18       -0.007  -0.001  -0.010  -0.019
   19       -0.012  -0.012   0.005  -0.019
   20       -0.016  -0.022  -0.004  -0.042
   21       -0.002  -0.001  -0.019  -0.022
   22       -0.014  -0.003   0.001  -0.016
   23       -0.004  -0.004  -0.007  -0.015
--------------------------------------------------
tot         -0.170  -0.154  -0.119  -0.443
 
    CHARGE:  cpu time    0.1900: real time    0.1898
    FORLOC:  cpu time    0.0494: real time    0.0494
    FORNL :  cpu time    1.2781: real time    1.2772
    STRESS:  cpu time    2.9495: real time    2.9461
    FORCOR:  cpu time    0.5745: real time    0.5740
    FORHAR:  cpu time    0.0917: real time    0.0916
    MIXING:  cpu time    0.0289: real time    0.0289
    OFIELD:  cpu time    0.0001: real time    0.0001

  FORCE on cell =-STRESS in cart. coord.  units (eV):
  Direction    XX          YY          ZZ          XY          YZ          ZX
  --------------------------------------------------------------------------------------
  Alpha Z    39.78083    39.78083    39.78083
  Ewald   21302.10110 22767.79611 14700.46900 -1467.14688 -2642.79080 -1475.41762
  Hartree 30840.10195 32201.51956 24784.24272 -1378.28168 -2390.05187 -1315.38131
  E(xc)   -1476.13182 -1475.83074 -1476.84145    -0.17063    -0.41169    -0.27233
  Local  -54401.46902-57231.04374-41757.81081  2848.46975  5028.59930  2788.19616
  n-local  -540.14582  -538.61388  -540.84004    -1.45684    -0.81994    -0.43436
  augment  2159.54373  2159.63918  2166.62305    -0.52311     2.59043     1.50468
  Kinetic  2070.05518  2070.62665  2078.29444    -0.79506     2.99946     1.94174
  Fock        0.00000     0.00000     0.00000     0.00000     0.00000     0.00000
  -------------------------------------------------------------------------------------
  Total      -6.16389    -6.12604    -6.08228     0.09555     0.11489     0.13695
  in kB      -1.01548    -1.00924    -1.00204     0.01574     0.01893     0.02256
  external pressure =       -1.01 kB  Pullay stress =        0.00 kB


 VOLUME and BASIS-vectors are now :
 -----------------------------------------------------------------------------
  energy-cutoff  :      295.45
  volume of cell :     9725.10
      direct lattice vectors                 reciprocal lattice vectors
    21.345092079  0.000000000  0.000000000     0.046849177  0.000000000  0.000000000
     0.000000000 21.345092079  0.000000000     0.000000000  0.046849177  0.000000000
     0.000000000  0.000000000 21.345092079     0.000000000  0.000000000  0.046849177

  length of vectors
    21.345092079 21.345092079 21.345092079     0.046849177  0.046849177  0.046849177


 FORCES acting on ions
    electron-ion (+dipol)            ewald-force                    non-local-force                 convergence-correction
 -----------------------------------------------------------------------------------------------
   -.513E+03 0.163E+04 0.104E+03   0.511E+03 -.162E+04 -.103E+03   0.187E+01 -.100E+02 -.137E+01   0.962E-03 0.334E-03 -.644E-03
   -.118E+04 0.104E+04 0.736E+03   0.117E+04 -.103E+04 -.733E+03   0.522E+01 -.330E+01 -.228E+01   0.225E-02 0.183E-04 -.379E-03
   -.138E+04 0.163E+03 0.113E+04   0.137E+04 -.161E+03 -.112E+04   0.613E+01 -.157E+01 -.413E+01   0.507E-03 0.103E-02 0.711E-04
   -.915E+03 0.973E+03 -.868E+03   0.914E+03 -.971E+03 0.867E+03   0.661E+00 -.139E+01 0.740E+00   0.529E-04 0.185E-02 -.813E-03
   -.123E+04 0.952E+02 -.228E+03   0.123E+04 -.969E+02 0.228E+03   0.243E+00 0.169E+01 0.373E-02   0.259E-02 0.131E-02 -.722E-03
   -.935E+03 0.126E+03 -.155E+04   0.930E+03 -.125E+03 0.154E+04   0.529E+01 -.131E+01 0.523E+01   0.247E-02 0.692E-03 0.124E-02
   0.348E+03 0.128E+04 0.765E+03   -.348E+03 -.128E+04 -.765E+03   0.729E+00 -.139E+01 -.128E+00   0.181E-02 -.382E-03 -.140E-02
   -.147E+04 -.997E+03 0.266E+03   0.146E+04 0.992E+03 -.265E+03   0.704E+01 0.519E+01 -.743E+00   0.461E-03 -.192E-03 0.560E-03
   0.562E+03 0.152E+04 -.747E+03   -.559E+03 -.151E+04 0.742E+03   -.242E+01 -.776E+01 0.476E+01   0.903E-03 -.912E-03 0.297E-03
   -.148E+03 0.348E+03 0.146E+04   0.148E+03 -.349E+03 -.146E+04   0.245E+00 0.808E+00 -.915E+00   0.261E-02 0.651E-03 -.909E-03
   -.112E+04 -.106E+04 -.956E+03   0.111E+04 0.106E+04 0.952E+03   0.481E+01 0.477E+01 0.398E+01   0.675E-03 0.991E-04 0.464E-03
   0.300E+03 -.109E+01 -.921E+02   -.300E+03 0.212E+01 0.910E+02   -.837E+00 -.104E+01 0.113E+01   0.233E-02 0.952E-04 0.594E-03
   -.305E+03 -.150E+04 0.629E+02   0.305E+03 0.150E+04 -.626E+02   0.446E+00 0.279E+01 -.271E+00   0.203E-02 0.687E-03 -.705E-03
   0.108E+04 0.668E+03 0.136E+04   -.108E+04 -.665E+03 -.135E+04   -.388E+01 -.301E+01 -.609E+01   0.924E-03 0.434E-03 -.206E-02
   0.373E+03 0.555E+03 -.159E+04   -.372E+03 -.554E+03 0.159E+04   -.911E+00 -.498E+00 0.384E+01   0.116E-02 -.172E-03 0.229E-02
   0.149E+04 0.976E+03 -.262E+03   -.149E+04 -.973E+03 0.263E+03   -.583E+01 -.267E+01 -.136E+01   -.772E-03 -.115E-02 0.622E-03
   -.433E+03 -.979E+03 0.144E+04   0.431E+03 0.974E+03 -.144E+04   0.217E+01 0.527E+01 -.608E+01   0.124E-02 0.433E-03 -.807E-03
   0.803E+02 -.967E+03 -.145E+04   -.806E+02 0.966E+03 0.145E+04   0.294E+00 0.107E+01 0.203E+01   0.254E-02 0.133E-02 0.106E-02
   0.523E+03 -.812E+03 0.132E+04   -.521E+03 0.812E+03 -.132E+04   -.246E+01 0.576E+00 -.151E+01   0.153E-02 0.457E-03 -.119E-02
   0.135E+04 -.284E+03 -.127E+04   -.134E+04 0.281E+03 0.126E+04   -.533E+01 0.279E+01 0.535E+01   -.301E-03 0.731E-03 0.138E-02
   0.174E+04 -.143E+03 0.288E+03   -.174E+04 0.142E+03 -.288E+03   -.542E+01 0.795E+00 -.431E+00   0.275E-03 0.604E-03 -.253E-03
   0.727E+03 -.149E+04 -.512E+03   -.725E+03 0.149E+04 0.510E+03   -.157E+01 0.363E+01 0.206E+01   0.101E-02 0.115E-02 -.141E-03
   0.104E+04 -.114E+04 0.589E+03   -.103E+04 0.113E+04 -.584E+03   -.678E+01 0.718E+01 -.506E+01   0.496E-04 0.137E-02 0.725E-03
 -----------------------------------------------------------------------------------------------
   0.317E+00 -.270E+01 0.118E+01   0.682E-12 -.114E-11 0.682E-12   -.296E+00 0.256E+01 -.125E+01   0.273E-01 0.105E-01 -.714E-03
 
 
 POSITION                                       TOTAL-FORCE (eV/Angst)
 -----------------------------------------------------------------------------------
     11.85607      6.56020     10.68562        -0.000309      0.003541      0.000488
     12.73967      8.58134      9.56167        -0.000473      0.004195     -0.003545
     13.50851     10.68234      8.49969         0.006482     -0.002941      0.003266
     11.95014      8.58225     11.91787         0.014176      0.009213      0.006647
     12.57304     10.68692     10.86206        -0.015718      0.001439      0.008788
     12.26633     10.52660     13.33456         0.005334     -0.009689      0.005210
     10.36449      8.35279      9.95821        -0.010302      0.015656      0.001932
     13.61724     12.64002      9.91470         0.015359      0.005445      0.013533
      9.85999      7.34643     12.04995        -0.006542     -0.003026      0.001847
     11.16095     10.34788      8.72784        -0.014447     -0.002910     -0.006075
     12.88072     12.66212     12.32211         0.008060     -0.002285      0.012005
      9.95544     10.76339     10.84385         0.005791      0.000419     -0.004316
     11.28778     12.87300     10.49192        -0.006981      0.005219     -0.002120
      8.77274      9.80823      8.84233         0.003846     -0.008148     -0.005490
     10.00583      9.60263     13.06546         0.009711      0.005965     -0.019726
      8.28948      9.10822     11.27617         0.008454     -0.008435     -0.003915
     11.89277     12.53892      8.12511         0.008421     -0.005521      0.001770
     10.54047     12.13510     12.82755         0.002119     -0.015373     -0.006570
      9.52237     12.26595      8.84086         0.000926      0.020395     -0.010314
      8.23418     11.19331     12.60073        -0.007840     -0.006730      0.002197
      7.57342     11.39414     10.21457        -0.016921     -0.011189      0.003528
      8.96984     13.11373     11.19912        -0.010605      0.000759      0.003289
      7.64710     13.70305      9.30662         0.001461      0.003997     -0.002429
 -----------------------------------------------------------------------------------
    total drift:                                0.048540     -0.128466     -0.067382


--------------------------------------------------------------------------------------------------------



  FREE ENERGIE OF THE ION-ELECTRON SYSTEM (eV)
  ---------------------------------------------------
  free  energy   TOTEN  =       -63.53887743 eV

  energy  without entropy=      -63.53887743  energy(sigma->0) =      -63.53887743
 
 d Force = 0.9662953E-03[ 0.378E-03, 0.155E-02]  d Energy = 0.9836647E-03-0.174E-04
 d Force =-0.2466298E+02[-0.246E+02,-0.247E+02]  d Ewald  =-0.2466303E+02 0.516E-04


--------------------------------------------------------------------------------------------------------


    POTLOK:  cpu time    0.5813: real time    0.5808


--------------------------------------------------------------------------------------------------------


 Conjugate gradient step on ions:
 trial-energy change:   -0.000984  1 .order   -0.000966   -0.001555   -0.000378
  (g-gl).g = 0.431E-03      g.g   = 0.521E-03  gl.gl    = 0.917E-03
 g(Force)  = 0.521E-03   g(Stress)= 0.000E+00 ortho     = 0.383E-05
 gamma     =   0.47001
 trial     =   2.97392
 opt step  =   3.83160  (harmonic =   3.92949) maximal distance =0.00875184
 next E    =   -63.538932   (d E  =  -0.00104)


--------------------------------------------------------------------------------------------------------


  
 reached required accuracy - stopping structural energy minimisation
     LOOP+:  cpu time   92.2265: real time   92.5122
    4ORBIT:  cpu time    0.0002: real time    0.0002
 


 total charge     
 
# of ion       s       p       d       tot
------------------------------------------
    1        0.495   0.135   9.266   9.897
    2        0.459   0.229   9.234   9.922
    3        0.476   0.187   9.253   9.916
    4        0.467   0.294   9.212   9.973
    5        0.448   0.312   9.210   9.971
    6        0.474   0.194   9.248   9.916
    7        0.449   0.309   9.217   9.974
    8        0.455   0.191   9.270   9.916
    9        0.457   0.186   9.266   9.910
   10        0.448   0.327   9.201   9.976
   11        0.474   0.178   9.256   9.908
   12        0.447   0.376   9.219  10.042
   13        0.454   0.297   9.223   9.973
   14        0.455   0.204   9.261   9.920
   15        0.440   0.257   9.235   9.932
   16        0.433   0.250   9.229   9.912
   17        0.462   0.185   9.258   9.904
   18        0.464   0.259   9.211   9.934
   19        0.439   0.286   9.212   9.936
   20        0.462   0.213   9.252   9.926
   21        0.455   0.245   9.237   9.936
   22        0.456   0.267   9.231   9.954
   23        0.506   0.096   9.277   9.879
--------------------------------------------------
tot         10.575   5.475 212.478 228.528
 


 magnetization (x)
 
# of ion       s       p       d       tot
------------------------------------------
    1        0.001  -0.011  -0.011  -0.022
    2       -0.027  -0.002   0.003  -0.026
    3       -0.027  -0.010   0.003  -0.034
    4       -0.002  -0.007   0.001  -0.008
    5        0.000   0.000  -0.015  -0.014
    6       -0.001  -0.003  -0.000  -0.004
    7       -0.000  -0.004  -0.005  -0.009
    8       -0.004  -0.014  -0.002  -0.020
    9       -0.007  -0.006  -0.004  -0.018
   10        0.001   0.001  -0.021  -0.019
   11       -0.014  -0.002  -0.004  -0.021
   12       -0.003  -0.000  -0.016  -0.019
   13       -0.002  -0.005  -0.015  -0.022
   14       -0.008  -0.000  -0.001  -0.009
   15       -0.004  -0.015  -0.001  -0.019
   16       -0.014  -0.016   0.000  -0.030
   17       -0.002  -0.016   0.002  -0.016
   18       -0.007  -0.001  -0.010  -0.019
   19       -0.012  -0.012   0.005  -0.019
   20       -0.016  -0.022  -0.004  -0.042
   21       -0.002  -0.001  -0.019  -0.022
   22       -0.014  -0.003   0.001  -0.016
   23       -0.004  -0.004  -0.007  -0.015
--------------------------------------------------
tot         -0.170  -0.154  -0.119  -0.443
 

 total amount of memory used by VASP MPI-rank0    52431. kBytes
=======================================================================

   base      :      30000. kBytes
   nonl-proj :       1796. kBytes
   fftplans  :       4337. kBytes
   grid      :      10964. kBytes
   one-center:         31. kBytes
   wavefun   :       5303. kBytes
 
  
  
 General timing and accounting informations for this job:
 ========================================================
  
                  Total CPU time used (sec):     1808.357
                            User time (sec):     1744.346
                          System time (sec):       64.011
                         Elapsed time (sec):     1818.516
  
                   Maximum memory used (kb):      666376.
                   Average memory used (kb):           0.
  
                          Minor page faults:      1255274
                          Major page faults:          197
                 Voluntary context switches:        20840
