 vasp.5.4.1 05Feb16 (build Apr 11 2020 03:28:46) gamma-only                     
  
 executed on           IFC91_ompi date 2022.05.23  12:48:23
 running on   24 total cores
 distrk:  each k-point on   24 cores,    1 groups
 distr:  one band on NCORES_PER_BAND=   6 cores,    4 groups


--------------------------------------------------------------------------------------------------------


 INCAR:
 POTCAR:    PAW_PBE Cu 22Jun2005                  
 POTCAR:    PAW_PBE Cu 22Jun2005                  
   VRHFIN =Cu: d10 p1                                                           
   LEXCH  = PE                                                                  
   EATOM  =  1390.9808 eV,  102.2342 Ry                                         
                                                                                
   TITEL  = PAW_PBE Cu 22Jun2005                                                
   LULTRA =        F    use ultrasoft PP ?                                      
   IUNSCR =        1    unscreen: 0-lin 1-nonlin 2-no                           
   RPACOR =    2.000    partial core radius                                     
   POMASS =   63.546; ZVAL   =   11.000    mass and valenz                      
   RCORE  =    2.300    outmost cutoff radius                                   
   RWIGS  =    2.200; RWIGS  =    1.164    wigner-seitz radius (au A)           
   ENMAX  =  295.446; ENMIN  =  221.585 eV                                      
   ICORE  =        3    local potential                                         
   LCOR   =        T    correct aug charges                                     
   LPAW   =        T    paw PP                                                  
   EAUG   =  586.980                                                            
   DEXC   =    0.000                                                            
   RMAX   =    2.344    core radius for proj-oper                               
   RAUG   =    1.300    factor for augmentation sphere                          
   RDEP   =    2.302    radius for radial grids                                 
   RDEPT  =    1.771    core radius for aug-charge                              
                                                                                
   Atomic configuration                                                         
    9 entries                                                                   
     n  l   j            E        occ.                                          
     1  0  0.50     -8850.2468   2.0000                                         
     2  0  0.50     -1062.3498   2.0000                                         
     2  1  1.50      -916.8226   6.0000                                         
     3  0  0.50      -114.6929   2.0000                                         
     3  1  1.50       -72.1325   6.0000                                         
     3  2  2.50        -5.0394  10.0000                                         
     4  0  0.50        -4.6097   1.0000                                         
     4  1  0.50        -4.0817   0.0000                                         
     4  3  2.50        -1.3606   0.0000                                         
   Description                                                                  
     l       E           TYP  RCUT    TYP  RCUT                                 
     2     -5.0393973     23  2.200                                             
     2     10.8846608     23  2.200                                             
     0     -4.6097109     23  2.200                                             
     0      8.2520465     23  2.200                                             
     1     -2.7211652     23  2.200                                             
     1     21.7055443     23  2.200                                             
     3      2.7211652     23  2.300                                             
  local pseudopotential read in
  partial core-charges read in
  partial kinetic energy density read in
  atomic valenz-charges read in
  non local Contribution for L=           2  read in
    real space projection operators read in
  non local Contribution for L=           2  read in
    real space projection operators read in
  non local Contribution for L=           0  read in
    real space projection operators read in
  non local Contribution for L=           0  read in
    real space projection operators read in
  non local Contribution for L=           1  read in
    real space projection operators read in
  non local Contribution for L=           1  read in
    real space projection operators read in
    PAW grid and wavefunctions read in
 
   number of l-projection  operators is LMAX  =           6
   number of lm-projection operators is LMMAX =          18
 

 ----------------------------------------------------------------------------- 
|                                                                             |
|  ADVICE TO THIS USER RUNNING 'VASP/VAMP'   (HEAR YOUR MASTER'S VOICE ...):  |
|                                                                             |
|      You have a (more or less) 'large supercell' and for larger cells       |
|      it might be more efficient to use real space projection opertators     |
|      So try LREAL= Auto  in the INCAR   file.                               |
|      Mind: At the moment your POTCAR file does not contain real space       |
|       projectors, and has to be modified,  BUT if you                       |
|      want to do an extremely  accurate calculation you might also keep the  |
|      reciprocal projection scheme          (i.e. LREAL=.FALSE.)             |
|                                                                             |
 ----------------------------------------------------------------------------- 

  PAW_PBE Cu 22Jun2005                  :
 energy of atom  1       EATOM=-1390.9808
 kinetic energy error for atom=    0.0452 (will be added to EATOM!!)
 
 
 POSCAR: Unknown Structure <s> Cu </s>           
  positions in direct lattice
  velocities in cartesian coordinates
 exchange correlation table for  LEXCH =        8
   RHO(1)=    0.500       N(1)  =     2000
   RHO(2)=  100.500       N(2)  =     4000
 


--------------------------------------------------------------------------------------------------------


 ion  position               nearest neighbor table
   1  0.360  0.297  0.372-  19 2.33   8 2.34  11 2.36   9 2.36  10 2.40  12 2.40  13 2.41  18 2.51
                            14 2.52  17 2.53  16 2.59  15 2.59
   2  0.431  0.403  0.331-  19 2.47  15 2.49   3 2.52  22 2.54   6 2.55  14 2.55  23 2.58   7 2.61

   3  0.360  0.423  0.372-  19 2.33  24 2.35  20 2.36  22 2.36  21 2.40  25 2.40  23 2.41   7 2.51
                             2 2.52   4 2.53  16 2.59  15 2.59
   4  0.290  0.403  0.331-  19 2.48  16 2.49   3 2.53  20 2.55  17 2.55   5 2.56  25 2.59   7 2.62

   5  0.316  0.360  0.263-  19 2.34  17 2.55   4 2.56   6 2.63   7 2.63  18 2.63
   6  0.404  0.360  0.263-  19 2.34  14 2.55   2 2.55   5 2.63   7 2.64  18 2.64
   7  0.360  0.432  0.289-  19 2.43   3 2.51  25 2.52  23 2.52   2 2.61   4 2.62   5 2.63   6 2.64

   8  0.360  0.230  0.412-   1 2.34  12 2.51  13 2.51  11 2.54   9 2.55
   9  0.429  0.279  0.407-   1 2.36  15 2.49  13 2.50  14 2.54   8 2.55  10 2.70
  10  0.360  0.319  0.449-   1 2.40  16 2.47  15 2.48  21 2.50  11 2.69   9 2.70
  11  0.292  0.279  0.407-   1 2.36  16 2.49  12 2.51   8 2.54  17 2.54  10 2.69
  12  0.319  0.237  0.340-   1 2.40   8 2.51  11 2.51  18 2.51  13 2.52  17 2.59
  13  0.402  0.237  0.340-   1 2.41   9 2.50   8 2.51  12 2.52  18 2.52  14 2.58
  14  0.431  0.318  0.331-  19 2.47  15 2.49   1 2.52   9 2.54   6 2.55   2 2.55  13 2.58  18 2.62

  15  0.412  0.360  0.400-  10 2.48  21 2.48   9 2.49  22 2.49   2 2.49  14 2.49   1 2.59   3 2.59
                            19 2.69
  16  0.309  0.360  0.400-  10 2.47  21 2.47  11 2.49   4 2.49  17 2.49  20 2.50   3 2.59   1 2.59
                            19 2.68
  17  0.290  0.318  0.331-  19 2.47  16 2.49   1 2.53  11 2.54   5 2.55   4 2.55  12 2.59  18 2.62

  18  0.360  0.289  0.289-  19 2.43   1 2.51  12 2.51  13 2.52  14 2.62  17 2.62   5 2.63   6 2.64

  19  0.360  0.360  0.327-   1 2.33   3 2.33   5 2.34   6 2.34   7 2.43  18 2.43  14 2.47  17 2.47
                             2 2.47   4 2.48  16 2.68  15 2.69
  20  0.292  0.441  0.407-   3 2.36  16 2.50  25 2.50  24 2.54   4 2.55  21 2.69
  21  0.360  0.402  0.449-   3 2.40  16 2.47  15 2.48  10 2.50  20 2.69  22 2.69
  22  0.429  0.441  0.407-   3 2.36  15 2.49  23 2.50   2 2.54  24 2.54  21 2.69
  23  0.402  0.484  0.340-   3 2.41  22 2.50  24 2.51  25 2.51   7 2.52   2 2.58
  24  0.360  0.491  0.412-   3 2.35  25 2.51  23 2.51  20 2.54  22 2.54
  25  0.318  0.484  0.340-   3 2.40  20 2.50  24 2.51  23 2.51   7 2.52   4 2.59
 

IMPORTANT INFORMATION: All symmetrisations will be switched off!
NOSYMM: (Re-)initialisation of all symmetry stuff for point group C_1.

 
 
 KPOINTS: Gamma-point only                        
  k-points in reciprocal lattice
Space group operators:
 irot       det(A)        alpha          n_x          n_y          n_z        tau_x        tau_y        tau_z
    1     1.000000     0.000000     1.000000     0.000000     0.000000     0.000000     0.000000     0.000000


--------------------------------------------------------------------------------------------------------




 Dimension of arrays:
   k-points           NKPTS =      1   k-points in BZ     NKDIM =      1   number of bands    NBANDS=    204
   number of dos      NEDOS =    301   number of ions     NIONS =     25
   non local maximal  LDIM  =      6   non local SUM 2l+1 LMDIM =     18
   total plane-waves  NPLWV = ******
   max r-space proj   IRMAX =      1   max aug-charges    IRDMAX=   2345
   dimension x,y,z NGX =   126 NGY =  126 NGZ =  126
   dimension x,y,z NGXF=   252 NGYF=  252 NGZF=  252
   support grid    NGXF=   252 NGYF=  252 NGZF=  252
   ions per type =              25
 NGX,Y,Z   is equivalent  to a cutoff of   6.98,  6.98,  6.98 a.u.
 NGXF,Y,Z  is equivalent  to a cutoff of  13.96, 13.96, 13.96 a.u.


 I would recommend the setting:
   dimension x,y,z NGX =   126 NGY =  126 NGZ =  126
 SYSTEM =  unknown system                          
 POSCAR =  Unknown Structure <s> Cu </s>           

 Startparameter for this run:
   NWRITE =      2    write-flag & timer
   PREC   = normal    normal or accurate (medium, high low for compatibility)
   ISTART =      0    job   : 0-new  1-cont  2-samecut
   ICHARG =      2    charge: 1-file 2-atom 10-const
   ISPIN  =      2    spin polarized calculation?
   LNONCOLLINEAR =      F non collinear calculations
   LSORBIT =      F    spin-orbit coupling
   INIWAV =      1    electr: 0-lowe 1-rand  2-diag
   LASPH  =      F    aspherical Exc in radial PAW
   METAGGA=      F    non-selfconsistent MetaGGA calc.

 Electronic Relaxation 1
   ENCUT  =  295.4 eV  21.71 Ry    4.66 a.u.  42.05 42.05 42.05*2*pi/ulx,y,z
   ENINI  =  295.4     initial cutoff
   ENAUG  =  587.0 eV  augmentation charge cutoff
   NELM   =     60;   NELMIN=  2; NELMDL=  0     # of ELM steps 
   EDIFF  = 0.1E-05   stopping-criterion for ELM
   LREAL  =      F    real-space projection
   NLSPLINE    = F    spline interpolate recip. space projectors
   LCOMPAT=      F    compatible to vasp.4.4
   GGA_COMPAT  = T    GGA compatible to vasp.4.4-vasp.4.6
   LMAXPAW     = -100 max onsite density
   LMAXMIX     =    2 max onsite mixed and CHGCAR
   VOSKOWN=      0    Vosko Wilk Nusair interpolation
   ROPT   =    0.00000
 Ionic relaxation
   EDIFFG = -.3E-01   stopping-criterion for IOM
   NSW    =   1000    number of steps for IOM
   NBLOCK =      1;   KBLOCK =   1000    inner block; outer block 
   IBRION =      2    ionic relax: 0-MD 1-quasi-New 2-CG
   NFREE  =      1    steps in history (QN), initial steepest desc. (CG)
   ISIF   =      2    stress and relaxation
   IWAVPR =     11    prediction:  0-non 1-charg 2-wave 3-comb
   ISYM   =      0    0-nonsym 1-usesym 2-fastsym
   LCORR  =      T    Harris-Foulkes like correction to forces

   POTIM  = 0.5000    time-step for ionic-motion
   TEIN   =    0.0    initial temperature
   TEBEG  =    0.0;   TEEND  =   0.0 temperature during run
   SMASS  =  -3.00    Nose mass-parameter (am)
   estimated Nose-frequenzy (Omega)   =  0.10E-29 period in steps =****** mass=  -0.206E-25a.u.
   SCALEE = 1.0000    scale energy and forces
   NPACO  =    256;   APACO  = 16.0  distance and # of slots for P.C.
   PSTRESS=    0.0 pullay stress

  Mass of Ions in am
   POMASS =  63.55
  Ionic Valenz
   ZVAL   =  11.00
  Atomic Wigner-Seitz radii
   RWIGS  =  -1.00
  virtual crystal weights 
   VCA    =   1.00
   NELECT =     275.0000    total number of electrons
   NUPDOWN=      -1.0000    fix difference up-down

 DOS related values:
   EMIN   =  10.00;   EMAX   =-10.00  energy-range for DOS
   EFERMI =   0.00
   ISMEAR =     0;   SIGMA  =   0.00  broadening in eV -4-tet -1-fermi 0-gaus

 Electronic relaxation 2 (details)
   IALGO  =     38    algorithm
   LDIAG  =      T    sub-space diagonalisation (order eigenvalues)
   LSUBROT=      F    optimize rotation matrix (better conditioning)
   TURBO    =      0    0=normal 1=particle mesh
   IRESTART =      0    0=no restart 2=restart with 2 vectors
   NREBOOT  =      0    no. of reboots
   NMIN     =      0    reboot dimension
   EREF     =   0.00    reference energy to select bands
   IMIX   =      4    mixing-type and parameters
     AMIX     =   0.40;   BMIX     =  1.00
     AMIX_MAG =   1.60;   BMIX_MAG =  1.00
     AMIN     =   0.10
     WC   =   100.;   INIMIX=   1;  MIXPRE=   1;  MAXMIX= -45

 Intra band minimization:
   WEIMIN = 0.0010     energy-eigenvalue tresh-hold
   EBREAK =  0.12E-08  absolut break condition
   DEPER  =   0.30     relativ break condition  

   TIME   =   0.40     timestep for ELM

  volume/ion in A,a.u.               =    1080.00      7288.20
  Fermi-wavevector in a.u.,A,eV,Ry     =   0.354866  0.670600  1.713381  0.125930
  Thomas-Fermi vector in A             =   1.270241
 
 Write flags
   LWAVE  =      F    write WAVECAR
   LCHARG =      F    write CHGCAR
   LVTOT  =      F    write LOCPOT, total local potential
   LVHAR  =      F    write LOCPOT, Hartree potential only
   LELF   =      F    write electronic localiz. function (ELF)
   LORBIT =     11    0 simple, 1 ext, 2 COOP (PROOUT)


 Dipole corrections
   LMONO  =      F    monopole corrections only (constant potential shift)
   LDIPOL =      F    correct potential (dipole corrections)
   IDIPOL =      0    1-x, 2-y, 3-z, 4-all directions 
   EPSILON=  1.0000000 bulk dielectric constant

 Exchange correlation treatment:
   GGA     =    PE    GGA type
   LEXCH   =     8    internal setting for exchange type
   VOSKOWN=      0    Vosko Wilk Nusair interpolation
   LHFCALC =     F    Hartree Fock is set to
   LHFONE  =     F    Hartree Fock one center treatment
   AEXX    =    0.0000 exact exchange contribution

 Linear response parameters
   LEPSILON=     F    determine dielectric tensor
   LRPA    =     F    only Hartree local field effects (RPA)
   LNABLA  =     F    use nabla operator in PAW spheres
   LVEL    =     F    velocity operator in full k-point grid
   LINTERFAST=   F  fast interpolation
   KINTER  =     0    interpolate to denser k-point grid
   CSHIFT  =0.1000    complex shift for real part using Kramers Kronig
   OMEGAMAX=  -1.0    maximum frequency
   DEG_THRESHOLD= 0.2000000E-02 threshold for treating states as degnerate
   RTIME   =    0.100 relaxation time in fs

 Orbital magnetization related:
   ORBITALMAG=     F  switch on orbital magnetization
   LCHIMAG   =     F  perturbation theory with respect to B field
   DQ        =  0.001000  dq finite difference perturbation B field



--------------------------------------------------------------------------------------------------------


 conjugate gradient relaxation of ions
 charge density and potential will be updated during run
 spin polarized calculation
 Variant of blocked Davidson
 Davidson routine will perform the subspace rotation
 perform sub-space diagonalisation
    after iterative eigenvector-optimisation
 modified Broyden-mixing scheme, WC =      100.0
 initial mixing is a Kerker type mixing with AMIX =  0.4000 and BMIX =      1.0000
 Hartree-type preconditioning will be used
 using additional bands           66
 reciprocal scheme for non local part
 use partial core corrections
 calculate Harris-corrections to forces 
   (improved forces if not selfconsistent)
 use gradient corrections 
 use of overlap-Matrix (Vanderbilt PP)
 Gauss-broadening in eV      SIGMA  =   0.00


--------------------------------------------------------------------------------------------------------


  energy-cutoff  :      295.45
  volume of cell :    27000.00
      direct lattice vectors                 reciprocal lattice vectors
    30.000000000  0.000000000  0.000000000     0.033333333  0.000000000  0.000000000
     0.000000000 30.000000000  0.000000000     0.000000000  0.033333333  0.000000000
     0.000000000  0.000000000 30.000000000     0.000000000  0.000000000  0.033333333

  length of vectors
    30.000000000 30.000000000 30.000000000     0.033333333  0.033333333  0.033333333


 
 k-points in units of 2pi/SCALE and weight: Gamma-point only                        
   0.00000000  0.00000000  0.00000000       1.000
 
 k-points in reciprocal lattice and weights: Gamma-point only                        
   0.00000000  0.00000000  0.00000000       1.000
 
 position of ions in fractional coordinates (direct lattice) 
   0.36030940  0.29697038  0.37215898
   0.43061310  0.40281390  0.33118038
   0.36023787  0.42344621  0.37214018
   0.28956527  0.40278779  0.33119039
   0.31643659  0.36015790  0.26251399
   0.40419476  0.36019872  0.26251534
   0.36013622  0.43158690  0.28884165
   0.36021674  0.22972032  0.41183434
   0.42889486  0.27925953  0.40665055
   0.36013688  0.31877435  0.44912874
   0.29184069  0.27931236  0.40669520
   0.31854009  0.23686475  0.33975511
   0.40239685  0.23689907  0.33976794
   0.43069150  0.31773743  0.33112356
   0.41197054  0.36022280  0.40009398
   0.30865497  0.36021252  0.40002426
   0.28960811  0.31771904  0.33112651
   0.36018283  0.28869065  0.28883255
   0.36015023  0.36016374  0.32695205
   0.29183821  0.44140517  0.40669953
   0.36011245  0.40198881  0.44910145
   0.42880429  0.44133237  0.40667091
   0.40225211  0.48363757  0.33981272
   0.36017931  0.49085747  0.41181560
   0.31846576  0.48366987  0.33980375
 
 position of ions in cartesian coordinates  (Angst):
  10.80928214  8.90911133 11.16476926
  12.91839305 12.08441695  9.93541128
  10.80713617 12.70338627 11.16420546
   8.68695814 12.08363372  9.93571161
   9.49309756 10.80473688  7.87541972
  12.12584282 10.80596169  7.87546007
  10.80408650 12.94760707  8.66524944
  10.80650224  6.89160952 12.35503020
  12.86684587  8.37778601 12.19951645
  10.80410634  9.56323048 13.47386224
   8.75522056  8.37937067 12.20085597
   9.55620258  7.10594254 10.19265324
  12.07190552  7.10697199 10.19303807
  12.92074509  9.53212301  9.93370673
  12.35911611 10.80668398 12.00281925
   9.25964910 10.80637574 12.00072780
   8.68824337  9.53157107  9.93379519
  10.80548503  8.66071956  8.66497650
  10.80450675 10.80491232  9.80856136
   8.75514626 13.24215519 12.20098586
  10.80337365 12.05966433 13.47304336
  12.86412857 13.23997102 12.20012733
  12.06756327 14.50912714 10.19438159
  10.80537938 14.72572416 12.35446813
   9.55397267 14.51009609 10.19411264
 


--------------------------------------------------------------------------------------------------------


 use parallel FFT for wavefunctions z direction half grid
 k-point  1 :   0.0000 0.0000 0.0000  plane waves:  155509

 maximum and minimum number of plane-waves per node :     25930    25903

 maximum number of plane-waves:    155509
 maximum index in each direction: 
   IXMAX=   42   IYMAX=   42   IZMAX=   42
   IXMIN=  -42   IYMIN=  -42   IZMIN=    0

 WARNING: aliasing errors must be expected set NGX to 170 to avoid them
 WARNING: aliasing errors must be expected set NGY to 170 to avoid them
 WARNING: aliasing errors must be expected set NGZ to 170 to avoid them
 aliasing errors are usually negligible using standard VASP settings
 and one can safely disregard these warnings

 parallel 3D FFT for wavefunctions:
    minimum data exchange during FFTs selected (reduces bandwidth)
 parallel 3D FFT for charge:
    minimum data exchange during FFTs selected (reduces bandwidth)


 total amount of memory used by VASP on root node   194476. kBytes
========================================================================

   base      :      30000. kBytes
   nonl-proj :      14091. kBytes
   fftplans  :      30597. kBytes
   grid      :      77361. kBytes
   one-center:         77. kBytes
   wavefun   :      42350. kBytes
 
     INWAV:  cpu time    0.0000: real time    0.0000
 Broyden mixing: mesh for mixing (old mesh)
   NGX = 85   NGY = 85   NGZ = 85
  (NGX  =252   NGY  =252   NGZ  =252)
  gives a total of 614125 points

 initial charge density was supplied:
 charge density of overlapping atoms calculated
 number of electron     275.0000000 magnetization      75.0000000
 keeping initial charge density in first step


--------------------------------------------------------------------------------------------------------


 Maximum index for augmentation-charges          195 (set IRDMAX)


--------------------------------------------------------------------------------------------------------


 First call to EWALD:  gamma=   0.059
 Maximum number of real-space cells 3x 3x 3
 Maximum number of reciprocal cells 3x 3x 3

 FEWALD executed in parallel
    FEWALD:  cpu time    0.0028: real time    0.0028


----------------------------------------- Iteration    1(   1)  ---------------------------------------


    POTLOK:  cpu time    1.3875: real time    1.3886
    SETDIJ:  cpu time    0.0213: real time    0.0213
     EDDAV:  cpu time   33.7657: real time   33.8449
       DOS:  cpu time    0.0002: real time    0.0002
    --------------------------------------------
      LOOP:  cpu time   35.1788: real time   35.2735

 eigenvalue-minimisations  :   848
 total energy-change (2. order) : 0.1812745E+04  (-0.4158728E+04)
 number of electron     275.0000000 magnetization      75.0000000
 augmentation part      275.0000000 magnetization      75.0000000

 Free energy of the ion-electron system (eV)
  ---------------------------------------------------
  alpha Z        PSCENC =        16.92888975
  Ewald energy   TEWEN  =     87931.46708748
  -Hartree energ DENC   =   -119526.73513902
  -exchange      EXHF   =         0.00000000
  -V(xc)+E(xc)   XCENC  =      1152.69608070
  PAW double counting   =     30680.42949507   -33322.39692142
  entropy T*S    EENTRO =         0.00000000
  eigenvalues    EBANDS =       106.96560367
  atomic energy  EATOM  =     34773.38961645
  Solvation  Ediel_sol  =         0.00000000
  ---------------------------------------------------
  free energy    TOTEN  =      1812.74471267 eV

  energy without entropy =     1812.74471267  energy(sigma->0) =     1812.74471267


--------------------------------------------------------------------------------------------------------




----------------------------------------- Iteration    1(   2)  ---------------------------------------


     EDDAV:  cpu time   38.8459: real time   38.9544
       DOS:  cpu time    0.0001: real time    0.0001
    --------------------------------------------
      LOOP:  cpu time   38.8493: real time   38.9606

 eigenvalue-minimisations  :  1008
 total energy-change (2. order) :-0.1363649E+04  (-0.1153408E+04)
 number of electron     275.0000000 magnetization      75.0000000
 augmentation part      275.0000000 magnetization      75.0000000

 Free energy of the ion-electron system (eV)
  ---------------------------------------------------
  alpha Z        PSCENC =        16.92888975
  Ewald energy   TEWEN  =     87931.46708748
  -Hartree energ DENC   =   -119526.73513902
  -exchange      EXHF   =         0.00000000
  -V(xc)+E(xc)   XCENC  =      1152.69608070
  PAW double counting   =     30680.42949507   -33322.39692142
  entropy T*S    EENTRO =         0.00000000
  eigenvalues    EBANDS =     -1256.68330431
  atomic energy  EATOM  =     34773.38961645
  Solvation  Ediel_sol  =         0.00000000
  ---------------------------------------------------
  free energy    TOTEN  =       449.09580469 eV

  energy without entropy =      449.09580469  energy(sigma->0) =      449.09580469


--------------------------------------------------------------------------------------------------------




----------------------------------------- Iteration    1(   3)  ---------------------------------------


     EDDAV:  cpu time   39.4538: real time   39.5376
       DOS:  cpu time    0.0001: real time    0.0001
    --------------------------------------------
      LOOP:  cpu time   39.4564: real time   39.5428

 eigenvalue-minimisations  :  1024
 total energy-change (2. order) :-0.4407557E+03  (-0.4154522E+03)
 number of electron     275.0000000 magnetization      75.0000000
 augmentation part      275.0000000 magnetization      75.0000000

 Free energy of the ion-electron system (eV)
  ---------------------------------------------------
  alpha Z        PSCENC =        16.92888975
  Ewald energy   TEWEN  =     87931.46708748
  -Hartree energ DENC   =   -119526.73513902
  -exchange      EXHF   =         0.00000000
  -V(xc)+E(xc)   XCENC  =      1152.69608070
  PAW double counting   =     30680.42949507   -33322.39692142
  entropy T*S    EENTRO =         0.00000000
  eigenvalues    EBANDS =     -1697.43896963
  atomic energy  EATOM  =     34773.38961645
  Solvation  Ediel_sol  =         0.00000000
  ---------------------------------------------------
  free energy    TOTEN  =         8.34013936 eV

  energy without entropy =        8.34013936  energy(sigma->0) =        8.34013936


--------------------------------------------------------------------------------------------------------




----------------------------------------- Iteration    1(   4)  ---------------------------------------


     EDDAV:  cpu time   40.4518: real time   40.5329
       DOS:  cpu time    0.0001: real time    0.0001
    --------------------------------------------
      LOOP:  cpu time   40.4542: real time   40.5383

 eigenvalue-minimisations  :  1056
 total energy-change (2. order) :-0.5339528E+02  (-0.4815026E+02)
 number of electron     275.0000000 magnetization      75.0000000
 augmentation part      275.0000000 magnetization      75.0000000

 Free energy of the ion-electron system (eV)
  ---------------------------------------------------
  alpha Z        PSCENC =        16.92888975
  Ewald energy   TEWEN  =     87931.46708748
  -Hartree energ DENC   =   -119526.73513902
  -exchange      EXHF   =         0.00000000
  -V(xc)+E(xc)   XCENC  =      1152.69608070
  PAW double counting   =     30680.42949507   -33322.39692142
  entropy T*S    EENTRO =         0.00000000
  eigenvalues    EBANDS =     -1750.83424723
  atomic energy  EATOM  =     34773.38961645
  Solvation  Ediel_sol  =         0.00000000
  ---------------------------------------------------
  free energy    TOTEN  =       -45.05513823 eV

  energy without entropy =      -45.05513823  energy(sigma->0) =      -45.05513823


--------------------------------------------------------------------------------------------------------




----------------------------------------- Iteration    1(   5)  ---------------------------------------


     EDDAV:  cpu time   40.1220: real time   40.2161
       DOS:  cpu time    0.0002: real time    0.0002
    CHARGE:  cpu time    0.9993: real time    1.0008
    MIXING:  cpu time    0.0327: real time    0.0329
    --------------------------------------------
      LOOP:  cpu time   41.1570: real time   41.2555

 eigenvalue-minimisations  :  1048
 total energy-change (2. order) :-0.2476228E+01  (-0.2408440E+01)
 number of electron     275.0000944 magnetization      70.9659238
 augmentation part      162.8558330 magnetization      67.8010583

 Broyden mixing:
  rms(total) = 0.89441E+01    rms(broyden)= 0.89427E+01
  rms(prec ) = 0.89949E+01
  weight for this iteration     100.00

 Free energy of the ion-electron system (eV)
  ---------------------------------------------------
  alpha Z        PSCENC =        16.92888975
  Ewald energy   TEWEN  =     87931.46708748
  -Hartree energ DENC   =   -119526.73513902
  -exchange      EXHF   =         0.00000000
  -V(xc)+E(xc)   XCENC  =      1152.69608070
  PAW double counting   =     30680.42949507   -33322.39692142
  entropy T*S    EENTRO =         0.00000000
  eigenvalues    EBANDS =     -1753.31047519
  atomic energy  EATOM  =     34773.38961645
  Solvation  Ediel_sol  =         0.00000000
  ---------------------------------------------------
  free energy    TOTEN  =       -47.53136619 eV

  energy without entropy =      -47.53136619  energy(sigma->0) =      -47.53136619


--------------------------------------------------------------------------------------------------------




----------------------------------------- Iteration    1(   6)  ---------------------------------------


    POTLOK:  cpu time    1.3926: real time    1.3934
    SETDIJ:  cpu time    0.0223: real time    0.0224
     EDDAV:  cpu time   34.9649: real time   35.0604
       DOS:  cpu time    0.0001: real time    0.0001
    CHARGE:  cpu time    0.9789: real time    0.9860
    MIXING:  cpu time    0.0307: real time    0.0307
    --------------------------------------------
      LOOP:  cpu time   37.3928: real time   37.4991

 eigenvalue-minimisations  :   872
 total energy-change (2. order) : 0.1711938E+03  (-0.1057370E+03)
 number of electron     275.0001130 magnetization      67.9633565
 augmentation part      189.3114809 magnetization      46.6647256

 Broyden mixing:
  rms(total) = 0.41090E+01    rms(broyden)= 0.41063E+01
  rms(prec ) = 0.41998E+01
  weight for this iteration     100.00

 eigenvalues of (default mixing * dielectric matrix)
  average eigenvalue GAMMA=   0.9264
  0.9264

 Free energy of the ion-electron system (eV)
  ---------------------------------------------------
  alpha Z        PSCENC =        16.92888975
  Ewald energy   TEWEN  =     87931.46708748
  -Hartree energ DENC   =   -118822.32750379
  -exchange      EXHF   =         0.00000000
  -V(xc)+E(xc)   XCENC  =      1248.18141774
  PAW double counting   =     30788.66303846   -33303.36420300
  entropy T*S    EENTRO =         0.00000000
  eigenvalues    EBANDS =     -2509.27593963
  atomic energy  EATOM  =     34773.38961645
  Solvation  Ediel_sol  =         0.00000000
  ---------------------------------------------------
  free energy    TOTEN  =       123.66240346 eV

  energy without entropy =      123.66240346  energy(sigma->0) =      123.66240346


--------------------------------------------------------------------------------------------------------




----------------------------------------- Iteration    1(   7)  ---------------------------------------


    POTLOK:  cpu time    1.3823: real time    1.3836
    SETDIJ:  cpu time    0.0211: real time    0.0211
     EDDAV:  cpu time   37.2626: real time   37.3434
       DOS:  cpu time    0.0002: real time    0.0002
    CHARGE:  cpu time    0.9836: real time    0.9843
    MIXING:  cpu time    0.0325: real time    0.0325
    --------------------------------------------
      LOOP:  cpu time   39.6858: real time   39.7716

 eigenvalue-minimisations  :   956
 total energy-change (2. order) :-0.5042752E+01  (-0.4214903E+02)
 number of electron     275.0001071 magnetization      64.1418651
 augmentation part      176.8872446 magnetization      41.6628604

 Broyden mixing:
  rms(total) = 0.21417E+01    rms(broyden)= 0.21405E+01
  rms(prec ) = 0.21614E+01
  weight for this iteration     100.00

 eigenvalues of (default mixing * dielectric matrix)
  average eigenvalue GAMMA=   0.8998
  1.1310  0.6686

 Free energy of the ion-electron system (eV)
  ---------------------------------------------------
  alpha Z        PSCENC =        16.92888975
  Ewald energy   TEWEN  =     87931.46708748
  -Hartree energ DENC   =   -119433.64500936
  -exchange      EXHF   =         0.00000000
  -V(xc)+E(xc)   XCENC  =      1258.11125883
  PAW double counting   =     31743.15713840   -34474.04129581
  entropy T*S    EENTRO =         0.00000000
  eigenvalues    EBANDS =     -1696.74803416
  atomic energy  EATOM  =     34773.38961645
  Solvation  Ediel_sol  =         0.00000000
  ---------------------------------------------------
  free energy    TOTEN  =       118.61965158 eV

  energy without entropy =      118.61965158  energy(sigma->0) =      118.61965158


--------------------------------------------------------------------------------------------------------




----------------------------------------- Iteration    1(   8)  ---------------------------------------


    POTLOK:  cpu time    1.3786: real time    1.3811
    SETDIJ:  cpu time    0.0209: real time    0.0209
     EDDAV:  cpu time   39.2487: real time   39.3391
       DOS:  cpu time    0.0001: real time    0.0001
    CHARGE:  cpu time    0.9734: real time    0.9741
    MIXING:  cpu time    0.0366: real time    0.0366
    --------------------------------------------
      LOOP:  cpu time   41.6618: real time   41.7584

 eigenvalue-minimisations  :  1024
 total energy-change (2. order) : 0.1906986E+02  (-0.5650191E+01)
 number of electron     275.0001041 magnetization      61.8747712
 augmentation part      175.8490363 magnetization      38.7460867

 Broyden mixing:
  rms(total) = 0.19631E+01    rms(broyden)= 0.19621E+01
  rms(prec ) = 0.19975E+01
  weight for this iteration     100.00

 eigenvalues of (default mixing * dielectric matrix)
  average eigenvalue GAMMA=   0.8080
  1.2058  0.6855  0.5327

 Free energy of the ion-electron system (eV)
  ---------------------------------------------------
  alpha Z        PSCENC =        16.92888975
  Ewald energy   TEWEN  =     87931.46708748
  -Hartree energ DENC   =   -119516.42292124
  -exchange      EXHF   =         0.00000000
  -V(xc)+E(xc)   XCENC  =      1272.32752012
  PAW double counting   =     32265.06981168   -34999.80056961
  entropy T*S    EENTRO =         0.00000000
  eigenvalues    EBANDS =     -1605.26992753
  atomic energy  EATOM  =     34773.38961645
  Solvation  Ediel_sol  =         0.00000000
  ---------------------------------------------------
  free energy    TOTEN  =       137.68950709 eV

  energy without entropy =      137.68950709  energy(sigma->0) =      137.68950709


--------------------------------------------------------------------------------------------------------




----------------------------------------- Iteration    1(   9)  ---------------------------------------


    POTLOK:  cpu time    1.3860: real time    1.3873
    SETDIJ:  cpu time    0.0210: real time    0.0211
     EDDAV:  cpu time   41.0206: real time   41.1166
       DOS:  cpu time    0.0002: real time    0.0002
    CHARGE:  cpu time    0.9738: real time    0.9747
    MIXING:  cpu time    0.0388: real time    0.0388
    --------------------------------------------
      LOOP:  cpu time   43.4439: real time   43.5449

 eigenvalue-minimisations  :  1080
 total energy-change (2. order) :-0.1152271E+02  (-0.1880331E+01)
 number of electron     275.0001051 magnetization      56.5267487
 augmentation part      176.6234585 magnetization      33.9283410

 Broyden mixing:
  rms(total) = 0.13099E+01    rms(broyden)= 0.13090E+01
  rms(prec ) = 0.13163E+01
  weight for this iteration     100.00

 eigenvalues of (default mixing * dielectric matrix)
  average eigenvalue GAMMA=   0.9251
  1.2983  1.2983  0.6821  0.4216

 Free energy of the ion-electron system (eV)
  ---------------------------------------------------
  alpha Z        PSCENC =        16.92888975
  Ewald energy   TEWEN  =     87931.46708748
  -Hartree energ DENC   =   -119488.93844067
  -exchange      EXHF   =         0.00000000
  -V(xc)+E(xc)   XCENC  =      1261.23096473
  PAW double counting   =     32393.59989383   -35116.64468688
  entropy T*S    EENTRO =        -0.00000000
  eigenvalues    EBANDS =     -1644.86652631
  atomic energy  EATOM  =     34773.38961645
  Solvation  Ediel_sol  =         0.00000000
  ---------------------------------------------------
  free energy    TOTEN  =       126.16679837 eV

  energy without entropy =      126.16679837  energy(sigma->0) =      126.16679837


--------------------------------------------------------------------------------------------------------




----------------------------------------- Iteration    1(  10)  ---------------------------------------


    POTLOK:  cpu time    1.3769: real time    1.3778
    SETDIJ:  cpu time    0.0210: real time    0.0213
     EDDAV:  cpu time   46.7985: real time   46.9164
       DOS:  cpu time    0.0002: real time    0.0002
    CHARGE:  cpu time    0.9814: real time    0.9821
    MIXING:  cpu time    0.0419: real time    0.0419
    --------------------------------------------
      LOOP:  cpu time   49.2235: real time   49.3463

 eigenvalue-minimisations  :  1272
 total energy-change (2. order) :-0.5127047E+02  (-0.2849082E+01)
 number of electron     275.0001072 magnetization      51.2239614
 augmentation part      177.5572465 magnetization      33.1824071

 Broyden mixing:
  rms(total) = 0.12137E+01    rms(broyden)= 0.12130E+01
  rms(prec ) = 0.12288E+01
  weight for this iteration     100.00

 eigenvalues of (default mixing * dielectric matrix)
  average eigenvalue GAMMA=   1.0171
  2.2987  1.1696  0.6680  0.4745  0.4745

 Free energy of the ion-electron system (eV)
  ---------------------------------------------------
  alpha Z        PSCENC =        16.92888975
  Ewald energy   TEWEN  =     87931.46708748
  -Hartree energ DENC   =   -119476.83245844
  -exchange      EXHF   =         0.00000000
  -V(xc)+E(xc)   XCENC  =      1220.44633407
  PAW double counting   =     32548.38430554   -35247.66526823
  entropy T*S    EENTRO =         0.00000000
  eigenvalues    EBANDS =     -1691.22218031
  atomic energy  EATOM  =     34773.38961645
  Solvation  Ediel_sol  =         0.00000000
  ---------------------------------------------------
  free energy    TOTEN  =        74.89632631 eV

  energy without entropy =       74.89632631  energy(sigma->0) =       74.89632631


--------------------------------------------------------------------------------------------------------




----------------------------------------- Iteration    1(  11)  ---------------------------------------


    POTLOK:  cpu time    1.3792: real time    1.3800
    SETDIJ:  cpu time    0.0204: real time    0.0204
     EDDAV:  cpu time   41.2157: real time   41.3213
       DOS:  cpu time    0.0001: real time    0.0001
    CHARGE:  cpu time    0.9871: real time    0.9880
    MIXING:  cpu time    0.0465: real time    0.0465
    --------------------------------------------
      LOOP:  cpu time   43.6527: real time   43.7629

 eigenvalue-minimisations  :  1088
 total energy-change (2. order) :-0.1923269E+02  (-0.1680519E+01)
 number of electron     275.0001058 magnetization      46.5446077
 augmentation part      177.5651445 magnetization      29.7243486

 Broyden mixing:
  rms(total) = 0.83825E+00    rms(broyden)= 0.83808E+00
  rms(prec ) = 0.84485E+00
  weight for this iteration     100.00

 eigenvalues of (default mixing * dielectric matrix)
  average eigenvalue GAMMA=   1.0625
  2.7363  1.3418  0.6613  0.6613  0.5531  0.4214

 Free energy of the ion-electron system (eV)
  ---------------------------------------------------
  alpha Z        PSCENC =        16.92888975
  Ewald energy   TEWEN  =     87931.46708748
  -Hartree energ DENC   =   -119509.04753152
  -exchange      EXHF   =         0.00000000
  -V(xc)+E(xc)   XCENC  =      1206.63478084
  PAW double counting   =     32725.34438933   -35417.83686939
  entropy T*S    EENTRO =         0.00000000
  eigenvalues    EBANDS =     -1671.21672641
  atomic energy  EATOM  =     34773.38961645
  Solvation  Ediel_sol  =         0.00000000
  ---------------------------------------------------
  free energy    TOTEN  =        55.66363653 eV

  energy without entropy =       55.66363653  energy(sigma->0) =       55.66363653


--------------------------------------------------------------------------------------------------------




----------------------------------------- Iteration    1(  12)  ---------------------------------------


    POTLOK:  cpu time    1.3844: real time    1.3856
    SETDIJ:  cpu time    0.0210: real time    0.0211
     EDDAV:  cpu time   40.9563: real time   41.0467
       DOS:  cpu time    0.0002: real time    0.0002
    CHARGE:  cpu time    0.9712: real time    0.9722
    MIXING:  cpu time    0.0513: real time    0.0513
    --------------------------------------------
      LOOP:  cpu time   43.3879: real time   43.4832

 eigenvalue-minimisations  :  1080
 total energy-change (2. order) :-0.2389561E+02  (-0.1502013E+01)
 number of electron     275.0001052 magnetization      39.6599899
 augmentation part      176.8464507 magnetization      24.2846590

 Broyden mixing:
  rms(total) = 0.64256E+00    rms(broyden)= 0.64243E+00
  rms(prec ) = 0.64742E+00
  weight for this iteration     100.00

 eigenvalues of (default mixing * dielectric matrix)
  average eigenvalue GAMMA=   1.2193
  3.5893  1.8150  0.7846  0.7846  0.6126  0.4297  0.5197

 Free energy of the ion-electron system (eV)
  ---------------------------------------------------
  alpha Z        PSCENC =        16.92888975
  Ewald energy   TEWEN  =     87931.46708748
  -Hartree energ DENC   =   -119537.52427844
  -exchange      EXHF   =         0.00000000
  -V(xc)+E(xc)   XCENC  =      1188.97102257
  PAW double counting   =     32717.07937169   -35409.45483965
  entropy T*S    EENTRO =         0.00000000
  eigenvalues    EBANDS =     -1649.08884712
  atomic energy  EATOM  =     34773.38961645
  Solvation  Ediel_sol  =         0.00000000
  ---------------------------------------------------
  free energy    TOTEN  =        31.76802272 eV

  energy without entropy =       31.76802272  energy(sigma->0) =       31.76802272


--------------------------------------------------------------------------------------------------------




----------------------------------------- Iteration    1(  13)  ---------------------------------------


    POTLOK:  cpu time    1.3763: real time    1.3775
    SETDIJ:  cpu time    0.0215: real time    0.0216
     EDDAV:  cpu time   42.0900: real time   42.2116
       DOS:  cpu time    0.0002: real time    0.0002
    CHARGE:  cpu time    0.9830: real time    0.9836
    MIXING:  cpu time    0.0565: real time    0.0565
    --------------------------------------------
      LOOP:  cpu time   44.5310: real time   44.6573

 eigenvalue-minimisations  :  1104
 total energy-change (2. order) :-0.4105436E+02  (-0.2872403E+01)
 number of electron     275.0001042 magnetization      33.8172756
 augmentation part      176.5200861 magnetization      24.9336263

 Broyden mixing:
  rms(total) = 0.71421E+00    rms(broyden)= 0.71327E+00
  rms(prec ) = 0.72311E+00
  weight for this iteration     100.00

 eigenvalues of (default mixing * dielectric matrix)
  average eigenvalue GAMMA=   1.2541
  4.5185  1.8022  1.0787  0.6773  0.6773  0.5026  0.4379  0.3383

 Free energy of the ion-electron system (eV)
  ---------------------------------------------------
  alpha Z        PSCENC =        16.92888975
  Ewald energy   TEWEN  =     87931.46708748
  -Hartree energ DENC   =   -119535.94726534
  -exchange      EXHF   =         0.00000000
  -V(xc)+E(xc)   XCENC  =      1157.54824758
  PAW double counting   =     32594.77099725   -35281.82121152
  entropy T*S    EENTRO =        -0.00000000
  eigenvalues    EBANDS =     -1665.62269924
  atomic energy  EATOM  =     34773.38961645
  Solvation  Ediel_sol  =         0.00000000
  ---------------------------------------------------
  free energy    TOTEN  =        -9.28633760 eV

  energy without entropy =       -9.28633760  energy(sigma->0) =       -9.28633760


--------------------------------------------------------------------------------------------------------




----------------------------------------- Iteration    1(  14)  ---------------------------------------


    POTLOK:  cpu time    1.3813: real time    1.3823
    SETDIJ:  cpu time    0.0209: real time    0.0209
     EDDAV:  cpu time   41.1876: real time   41.2869
       DOS:  cpu time    0.0001: real time    0.0001
    CHARGE:  cpu time    0.9819: real time    0.9829
    MIXING:  cpu time    0.0620: real time    0.0623
    --------------------------------------------
      LOOP:  cpu time   43.6373: real time   43.7419

 eigenvalue-minimisations  :  1088
 total energy-change (2. order) :-0.1760092E+02  (-0.1949331E+01)
 number of electron     275.0001044 magnetization      29.0176487
 augmentation part      175.9207510 magnetization      21.4068933

 Broyden mixing:
  rms(total) = 0.43333E+00    rms(broyden)= 0.43313E+00
  rms(prec ) = 0.43908E+00
  weight for this iteration     100.00

 eigenvalues of (default mixing * dielectric matrix)
  average eigenvalue GAMMA=   1.3709
  5.5391  2.3117  0.8788  0.8110  0.8110  0.5650  0.5650  0.4062  0.4505

 Free energy of the ion-electron system (eV)
  ---------------------------------------------------
  alpha Z        PSCENC =        16.92888975
  Ewald energy   TEWEN  =     87931.46708748
  -Hartree energ DENC   =   -119569.68586010
  -exchange      EXHF   =         0.00000000
  -V(xc)+E(xc)   XCENC  =      1145.77479166
  PAW double counting   =     32623.35452052   -35310.65740498
  entropy T*S    EENTRO =         0.00000000
  eigenvalues    EBANDS =     -1637.45889589
  atomic energy  EATOM  =     34773.38961645
  Solvation  Ediel_sol  =         0.00000000
  ---------------------------------------------------
  free energy    TOTEN  =       -26.88725512 eV

  energy without entropy =      -26.88725512  energy(sigma->0) =      -26.88725512


--------------------------------------------------------------------------------------------------------




----------------------------------------- Iteration    1(  15)  ---------------------------------------


    POTLOK:  cpu time    1.3829: real time    1.3849
    SETDIJ:  cpu time    0.0213: real time    0.0214
     EDDAV:  cpu time   43.9476: real time   44.0548
       DOS:  cpu time    0.0002: real time    0.0002
    CHARGE:  cpu time    0.9873: real time    0.9881
    MIXING:  cpu time    0.0661: real time    0.0662
    --------------------------------------------
      LOOP:  cpu time   46.4090: real time   46.5218

 eigenvalue-minimisations  :  1180
 total energy-change (2. order) :-0.1683239E+02  (-0.1582824E+01)
 number of electron     275.0001044 magnetization      26.0522894
 augmentation part      176.1949993 magnetization      21.5076504

 Broyden mixing:
  rms(total) = 0.38344E+00    rms(broyden)= 0.38277E+00
  rms(prec ) = 0.39013E+00
  weight for this iteration     100.00

 eigenvalues of (default mixing * dielectric matrix)
  average eigenvalue GAMMA=   1.3310
  5.9498  2.4193  0.8278  0.8278  0.8444  0.6116  0.6116  0.4672  0.4247  0.3260

 Free energy of the ion-electron system (eV)
  ---------------------------------------------------
  alpha Z        PSCENC =        16.92888975
  Ewald energy   TEWEN  =     87931.46708748
  -Hartree energ DENC   =   -119544.25106715
  -exchange      EXHF   =         0.00000000
  -V(xc)+E(xc)   XCENC  =      1132.40479943
  PAW double counting   =     32523.59193397   -35203.47082025
  entropy T*S    EENTRO =         0.00000000
  eigenvalues    EBANDS =     -1673.78008198
  atomic energy  EATOM  =     34773.38961645
  Solvation  Ediel_sol  =         0.00000000
  ---------------------------------------------------
  free energy    TOTEN  =       -43.71964231 eV

  energy without entropy =      -43.71964231  energy(sigma->0) =      -43.71964231


--------------------------------------------------------------------------------------------------------




----------------------------------------- Iteration    1(  16)  ---------------------------------------


    POTLOK:  cpu time    1.3794: real time    1.3806
    SETDIJ:  cpu time    0.0207: real time    0.0207
     EDDAV:  cpu time   41.8584: real time   41.9505
       DOS:  cpu time    0.0001: real time    0.0001
    CHARGE:  cpu time    0.9896: real time    0.9902
    MIXING:  cpu time    0.0754: real time    0.0754
    --------------------------------------------
      LOOP:  cpu time   44.3274: real time   44.4239

 eigenvalue-minimisations  :  1112
 total energy-change (2. order) :-0.6292539E+01  (-0.4581627E+00)
 number of electron     275.0001050 magnetization      22.8477525
 augmentation part      176.2689982 magnetization      20.7242721

 Broyden mixing:
  rms(total) = 0.33880E+00    rms(broyden)= 0.33830E+00
  rms(prec ) = 0.34434E+00
  weight for this iteration     100.00

 eigenvalues of (default mixing * dielectric matrix)
  average eigenvalue GAMMA=   1.3294
  6.5274  2.3626  0.9985  0.8091  0.8091  0.7014  0.7014  0.4867  0.4215  0.4028
  0.4028

 Free energy of the ion-electron system (eV)
  ---------------------------------------------------
  alpha Z        PSCENC =        16.92888975
  Ewald energy   TEWEN  =     87931.46708748
  -Hartree energ DENC   =   -119532.93339519
  -exchange      EXHF   =         0.00000000
  -V(xc)+E(xc)   XCENC  =      1127.28727359
  PAW double counting   =     32480.34213758   -35157.83766020
  entropy T*S    EENTRO =         0.00000000
  eigenvalues    EBANDS =     -1688.65613063
  atomic energy  EATOM  =     34773.38961645
  Solvation  Ediel_sol  =         0.00000000
  ---------------------------------------------------
  free energy    TOTEN  =       -50.01218118 eV

  energy without entropy =      -50.01218118  energy(sigma->0) =      -50.01218118


--------------------------------------------------------------------------------------------------------




----------------------------------------- Iteration    1(  17)  ---------------------------------------


    POTLOK:  cpu time    1.3897: real time    1.3912
    SETDIJ:  cpu time    0.0187: real time    0.0187
     EDDAV:  cpu time   42.8122: real time   42.9144
       DOS:  cpu time    0.0002: real time    0.0002
    CHARGE:  cpu time    0.9932: real time    0.9940
    MIXING:  cpu time    0.0815: real time    0.0816
    --------------------------------------------
      LOOP:  cpu time   45.2993: real time   45.4067

 eigenvalue-minimisations  :  1144
 total energy-change (2. order) :-0.4003058E+01  (-0.1902815E+00)
 number of electron     275.0001050 magnetization      18.3218640
 augmentation part      176.3153307 magnetization      16.7047072

 Broyden mixing:
  rms(total) = 0.24349E+00    rms(broyden)= 0.24344E+00
  rms(prec ) = 0.24728E+00
  weight for this iteration     100.00

 eigenvalues of (default mixing * dielectric matrix)
  average eigenvalue GAMMA=   1.4924
  8.1478  2.4975  1.2010  1.2010  0.9332  0.9332  0.6482  0.6482  0.4599  0.4599
  0.3893  0.3893

 Free energy of the ion-electron system (eV)
  ---------------------------------------------------
  alpha Z        PSCENC =        16.92888975
  Ewald energy   TEWEN  =     87931.46708748
  -Hartree energ DENC   =   -119531.07507583
  -exchange      EXHF   =         0.00000000
  -V(xc)+E(xc)   XCENC  =      1124.05002910
  PAW double counting   =     32472.52906676   -35150.49463471
  entropy T*S    EENTRO =         0.00000000
  eigenvalues    EBANDS =     -1690.81021774
  atomic energy  EATOM  =     34773.38961645
  Solvation  Ediel_sol  =         0.00000000
  ---------------------------------------------------
  free energy    TOTEN  =       -54.01523874 eV

  energy without entropy =      -54.01523874  energy(sigma->0) =      -54.01523874


--------------------------------------------------------------------------------------------------------




----------------------------------------- Iteration    1(  18)  ---------------------------------------


    POTLOK:  cpu time    1.3759: real time    1.3770
    SETDIJ:  cpu time    0.0212: real time    0.0216
     EDDAV:  cpu time   40.4044: real time   40.5048
       DOS:  cpu time    0.0001: real time    0.0001
    CHARGE:  cpu time    0.9737: real time    0.9747
    MIXING:  cpu time    0.0853: real time    0.0853
    --------------------------------------------
      LOOP:  cpu time   42.8644: real time   43.0437

 eigenvalue-minimisations  :  1064
 total energy-change (2. order) :-0.5636960E+01  (-0.2074244E+00)
 number of electron     275.0001049 magnetization      16.3198433
 augmentation part      176.3763939 magnetization      15.2298648

 Broyden mixing:
  rms(total) = 0.19244E+00    rms(broyden)= 0.19240E+00
  rms(prec ) = 0.19515E+00
  weight for this iteration     100.00

 eigenvalues of (default mixing * dielectric matrix)
  average eigenvalue GAMMA=   1.5171
  8.9086  2.7309  1.3039  1.3039  0.8765  0.8765  0.7182  0.7182  0.5621  0.5215
  0.4334  0.3842  0.3842

 Free energy of the ion-electron system (eV)
  ---------------------------------------------------
  alpha Z        PSCENC =        16.92888975
  Ewald energy   TEWEN  =     87931.46708748
  -Hartree energ DENC   =   -119515.68682175
  -exchange      EXHF   =         0.00000000
  -V(xc)+E(xc)   XCENC  =      1118.92132260
  PAW double counting   =     32425.98263087   -35105.81499734
  entropy T*S    EENTRO =         0.00000000
  eigenvalues    EBANDS =     -1704.83992636
  atomic energy  EATOM  =     34773.38961645
  Solvation  Ediel_sol  =         0.00000000
  ---------------------------------------------------
  free energy    TOTEN  =       -59.65219831 eV

  energy without entropy =      -59.65219831  energy(sigma->0) =      -59.65219831


--------------------------------------------------------------------------------------------------------




----------------------------------------- Iteration    1(  19)  ---------------------------------------


    POTLOK:  cpu time    1.3732: real time    1.3741
    SETDIJ:  cpu time    0.0207: real time    0.0207
     EDDAV:  cpu time   42.2944: real time   42.4343
       DOS:  cpu time    0.0001: real time    0.0001
    CHARGE:  cpu time    0.9953: real time    0.9961
    MIXING:  cpu time    0.0955: real time    0.0959
    --------------------------------------------
      LOOP:  cpu time   44.7827: real time   44.9818

 eigenvalue-minimisations  :  1112
 total energy-change (2. order) :-0.2868301E+01  (-0.6337713E-01)
 number of electron     275.0001050 magnetization      14.2950958
 augmentation part      176.3116744 magnetization      13.3362263

 Broyden mixing:
  rms(total) = 0.15529E+00    rms(broyden)= 0.15527E+00
  rms(prec ) = 0.15820E+00
  weight for this iteration     100.00

 eigenvalues of (default mixing * dielectric matrix)
  average eigenvalue GAMMA=   1.5364
  9.2662  2.9667  1.6259  1.0626  1.0626  0.9933  0.9374  0.6775  0.6775  0.5338
  0.5090  0.4343  0.3813  0.3813

 Free energy of the ion-electron system (eV)
  ---------------------------------------------------
  alpha Z        PSCENC =        16.92888975
  Ewald energy   TEWEN  =     87931.46708748
  -Hartree energ DENC   =   -119508.00201966
  -exchange      EXHF   =         0.00000000
  -V(xc)+E(xc)   XCENC  =      1116.31672682
  PAW double counting   =     32401.76554021   -35082.88102386
  entropy T*S    EENTRO =         0.00000000
  eigenvalues    EBANDS =     -1711.50531643
  atomic energy  EATOM  =     34773.38961645
  Solvation  Ediel_sol  =         0.00000000
  ---------------------------------------------------
  free energy    TOTEN  =       -62.52049925 eV

  energy without entropy =      -62.52049925  energy(sigma->0) =      -62.52049925


--------------------------------------------------------------------------------------------------------




----------------------------------------- Iteration    1(  20)  ---------------------------------------


    POTLOK:  cpu time    1.3756: real time    1.3815
    SETDIJ:  cpu time    0.0210: real time    0.0210
     EDDAV:  cpu time   39.5146: real time   39.6035
       DOS:  cpu time    0.0002: real time    0.0002
    CHARGE:  cpu time    0.9847: real time    0.9855
    MIXING:  cpu time    0.1044: real time    0.1044
    --------------------------------------------
      LOOP:  cpu time   42.0044: real time   42.1027

 eigenvalue-minimisations  :  1032
 total energy-change (2. order) :-0.2327794E+01  (-0.3975722E-01)
 number of electron     275.0001049 magnetization      11.5671770
 augmentation part      176.2775482 magnetization      10.5935878

 Broyden mixing:
  rms(total) = 0.11327E+00    rms(broyden)= 0.11326E+00
  rms(prec ) = 0.11566E+00
  weight for this iteration     100.00

 eigenvalues of (default mixing * dielectric matrix)
  average eigenvalue GAMMA=   1.5958
 10.0841  3.4444  1.7810  1.2188  1.2188  0.9512  0.9512  0.7649  0.6831  0.6831
  0.4850  0.4850  0.4234  0.3818  0.3818

 Free energy of the ion-electron system (eV)
  ---------------------------------------------------
  alpha Z        PSCENC =        16.92888975
  Ewald energy   TEWEN  =     87931.46708748
  -Hartree energ DENC   =   -119495.57655914
  -exchange      EXHF   =         0.00000000
  -V(xc)+E(xc)   XCENC  =      1114.11180280
  PAW double counting   =     32392.66569721   -35075.37896850
  entropy T*S    EENTRO =         0.00000000
  eigenvalues    EBANDS =     -1722.45585947
  atomic energy  EATOM  =     34773.38961645
  Solvation  Ediel_sol  =         0.00000000
  ---------------------------------------------------
  free energy    TOTEN  =       -64.84829343 eV

  energy without entropy =      -64.84829343  energy(sigma->0) =      -64.84829343


--------------------------------------------------------------------------------------------------------




----------------------------------------- Iteration    1(  21)  ---------------------------------------


    POTLOK:  cpu time    1.3754: real time    1.3790
    SETDIJ:  cpu time    0.0209: real time    0.0209
     EDDAV:  cpu time   41.9895: real time   42.0815
       DOS:  cpu time    0.0002: real time    0.0002
    CHARGE:  cpu time    0.9843: real time    0.9859
    MIXING:  cpu time    0.1080: real time    0.1080
    --------------------------------------------
      LOOP:  cpu time   44.4819: real time   44.5818

 eigenvalue-minimisations  :  1108
 total energy-change (2. order) :-0.1726414E+01  (-0.1964908E-01)
 number of electron     275.0001049 magnetization       9.3829971
 augmentation part      176.2715296 magnetization       8.4682166

 Broyden mixing:
  rms(total) = 0.83755E-01    rms(broyden)= 0.83742E-01
  rms(prec ) = 0.85385E-01
  weight for this iteration     100.00

 eigenvalues of (default mixing * dielectric matrix)
  average eigenvalue GAMMA=   1.6564
 10.5388  4.0871  2.2604  1.2613  1.2613  0.9780  0.9780  0.8911  0.7055  0.7055
  0.6579  0.5011  0.4795  0.4327  0.3821  0.3821

 Free energy of the ion-electron system (eV)
  ---------------------------------------------------
  alpha Z        PSCENC =        16.92888975
  Ewald energy   TEWEN  =     87931.46708748
  -Hartree energ DENC   =   -119478.48995026
  -exchange      EXHF   =         0.00000000
  -V(xc)+E(xc)   XCENC  =      1112.33055728
  PAW double counting   =     32378.98620485   -35062.52704742
  entropy T*S    EENTRO =         0.00000000
  eigenvalues    EBANDS =     -1738.66006530
  atomic energy  EATOM  =     34773.38961645
  Solvation  Ediel_sol  =         0.00000000
  ---------------------------------------------------
  free energy    TOTEN  =       -66.57470719 eV

  energy without entropy =      -66.57470719  energy(sigma->0) =      -66.57470719


--------------------------------------------------------------------------------------------------------




----------------------------------------- Iteration    1(  22)  ---------------------------------------


    POTLOK:  cpu time    1.3831: real time    1.3839
    SETDIJ:  cpu time    0.0219: real time    0.0224
     EDDAV:  cpu time   39.3901: real time   39.4735
       DOS:  cpu time    0.0001: real time    0.0001
    CHARGE:  cpu time    0.9834: real time    0.9919
    MIXING:  cpu time    0.1202: real time    0.1202
    --------------------------------------------
      LOOP:  cpu time   41.9022: real time   41.9982

 eigenvalue-minimisations  :  1024
 total energy-change (2. order) :-0.1203622E+01  (-0.5091947E-02)
 number of electron     275.0001049 magnetization       7.7148776
 augmentation part      176.2915617 magnetization       6.7863495

 Broyden mixing:
  rms(total) = 0.66886E-01    rms(broyden)= 0.66875E-01
  rms(prec ) = 0.68009E-01
  weight for this iteration     100.00

 eigenvalues of (default mixing * dielectric matrix)
  average eigenvalue GAMMA=   1.6766
 11.1293  4.4112  2.3613  1.3209  1.2181  1.2181  0.9870  0.9870  0.7767  0.6885
  0.6885  0.5262  0.5262  0.4670  0.4314  0.3824  0.3824

 Free energy of the ion-electron system (eV)
  ---------------------------------------------------
  alpha Z        PSCENC =        16.92888975
  Ewald energy   TEWEN  =     87931.46708748
  -Hartree energ DENC   =   -119458.74171228
  -exchange      EXHF   =         0.00000000
  -V(xc)+E(xc)   XCENC  =      1110.98644892
  PAW double counting   =     32374.80017001   -35058.66303710
  entropy T*S    EENTRO =        -0.00000000
  eigenvalues    EBANDS =     -1757.94579289
  atomic energy  EATOM  =     34773.38961645
  Solvation  Ediel_sol  =         0.00000000
  ---------------------------------------------------
  free energy    TOTEN  =       -67.77832967 eV

  energy without entropy =      -67.77832967  energy(sigma->0) =      -67.77832967


--------------------------------------------------------------------------------------------------------




----------------------------------------- Iteration    1(  23)  ---------------------------------------


    POTLOK:  cpu time    1.3820: real time    1.3830
    SETDIJ:  cpu time    0.0213: real time    0.0213
     EDDAV:  cpu time   42.5693: real time   42.6546
       DOS:  cpu time    0.0001: real time    0.0001
    CHARGE:  cpu time    0.9684: real time    0.9766
    MIXING:  cpu time    0.1303: real time    0.1303
    --------------------------------------------
      LOOP:  cpu time   45.0751: real time   45.1725

 eigenvalue-minimisations  :  1128
 total energy-change (2. order) :-0.7297853E+00  (-0.3160747E-02)
 number of electron     275.0001050 magnetization       6.0064386
 augmentation part      176.3106153 magnetization       5.1152623

 Broyden mixing:
  rms(total) = 0.53035E-01    rms(broyden)= 0.53028E-01
  rms(prec ) = 0.53882E-01
  weight for this iteration     100.00

 eigenvalues of (default mixing * dielectric matrix)
  average eigenvalue GAMMA=   1.7076
 11.4579  4.8105  2.6479  1.5587  1.5587  0.9828  0.9828  0.9825  0.9825  0.7018
  0.7018  0.6784  0.5503  0.3825  0.3825  0.4276  0.4735  0.4735

 Free energy of the ion-electron system (eV)
  ---------------------------------------------------
  alpha Z        PSCENC =        16.92888975
  Ewald energy   TEWEN  =     87931.46708748
  -Hartree energ DENC   =   -119449.33570984
  -exchange      EXHF   =         0.00000000
  -V(xc)+E(xc)   XCENC  =      1110.17097618
  PAW double counting   =     32377.86731857   -35061.51830063
  entropy T*S    EENTRO =         0.00000000
  eigenvalues    EBANDS =     -1767.47799292
  atomic energy  EATOM  =     34773.38961645
  Solvation  Ediel_sol  =         0.00000000
  ---------------------------------------------------
  free energy    TOTEN  =       -68.50811497 eV

  energy without entropy =      -68.50811497  energy(sigma->0) =      -68.50811497


--------------------------------------------------------------------------------------------------------




----------------------------------------- Iteration    1(  24)  ---------------------------------------


    POTLOK:  cpu time    1.3829: real time    1.3898
    SETDIJ:  cpu time    0.0213: real time    0.0214
     EDDAV:  cpu time   44.6966: real time   44.7890
       DOS:  cpu time    0.0001: real time    0.0001
    CHARGE:  cpu time    0.9811: real time    0.9884
    MIXING:  cpu time    0.1388: real time    0.1388
    --------------------------------------------
      LOOP:  cpu time   47.2243: real time   47.3336

 eigenvalue-minimisations  :  1200
 total energy-change (2. order) :-0.6220926E+00  (-0.2307860E-02)
 number of electron     275.0001050 magnetization       4.8454347
 augmentation part      176.3267666 magnetization       3.9763240

 Broyden mixing:
  rms(total) = 0.42034E-01    rms(broyden)= 0.42029E-01
  rms(prec ) = 0.42786E-01
  weight for this iteration     100.00

 eigenvalues of (default mixing * dielectric matrix)
  average eigenvalue GAMMA=   1.7438
 11.5666  5.6865  3.0289  1.8935  1.2862  1.2862  0.9946  0.9946  0.9051  0.9051
  0.6762  0.6762  0.5719  0.3825  0.3825  0.4309  0.5146  0.4755  0.4755

 Free energy of the ion-electron system (eV)
  ---------------------------------------------------
  alpha Z        PSCENC =        16.92888975
  Ewald energy   TEWEN  =     87931.46708748
  -Hartree energ DENC   =   -119441.33441890
  -exchange      EXHF   =         0.00000000
  -V(xc)+E(xc)   XCENC  =      1109.48492817
  PAW double counting   =     32386.91645306   -35070.24908166
  entropy T*S    EENTRO =         0.00000000
  eigenvalues    EBANDS =     -1775.73368195
  atomic energy  EATOM  =     34773.38961645
  Solvation  Ediel_sol  =         0.00000000
  ---------------------------------------------------
  free energy    TOTEN  =       -69.13020761 eV

  energy without entropy =      -69.13020761  energy(sigma->0) =      -69.13020761


--------------------------------------------------------------------------------------------------------




----------------------------------------- Iteration    1(  25)  ---------------------------------------


    POTLOK:  cpu time    1.3752: real time    1.3765
    SETDIJ:  cpu time    0.0215: real time    0.0215
     EDDAV:  cpu time   39.0081: real time   39.0898
       DOS:  cpu time    0.0001: real time    0.0001
    CHARGE:  cpu time    0.9932: real time    0.9942
    MIXING:  cpu time    0.1492: real time    0.1492
    --------------------------------------------
      LOOP:  cpu time   41.5509: real time   41.6499

 eigenvalue-minimisations  :  1016
 total energy-change (2. order) :-0.4303150E+00  (-0.1072535E-02)
 number of electron     275.0001050 magnetization       3.8396376
 augmentation part      176.3107344 magnetization       2.9500942

 Broyden mixing:
  rms(total) = 0.30664E-01    rms(broyden)= 0.30660E-01
  rms(prec ) = 0.31182E-01
  weight for this iteration     100.00

 eigenvalues of (default mixing * dielectric matrix)
  average eigenvalue GAMMA=   1.7849
 11.8876  6.5015  3.1658  2.2683  1.4113  1.4113  0.9930  0.9930  0.9182  0.9182
  0.6935  0.6935  0.6398  0.5810  0.3825  0.3825  0.5051  0.4291  0.4617  0.4617

 Free energy of the ion-electron system (eV)
  ---------------------------------------------------
  alpha Z        PSCENC =        16.92888975
  Ewald energy   TEWEN  =     87931.46708748
  -Hartree energ DENC   =   -119435.61465901
  -exchange      EXHF   =         0.00000000
  -V(xc)+E(xc)   XCENC  =      1109.06194786
  PAW double counting   =     32394.77487708   -35078.07069219
  entropy T*S    EENTRO =         0.00000000
  eigenvalues    EBANDS =     -1781.49759005
  atomic energy  EATOM  =     34773.38961645
  Solvation  Ediel_sol  =         0.00000000
  ---------------------------------------------------
  free energy    TOTEN  =       -69.56052264 eV

  energy without entropy =      -69.56052264  energy(sigma->0) =      -69.56052264


--------------------------------------------------------------------------------------------------------




----------------------------------------- Iteration    1(  26)  ---------------------------------------


    POTLOK:  cpu time    1.3728: real time    1.3804
    SETDIJ:  cpu time    0.0216: real time    0.0217
     EDDAV:  cpu time   41.6422: real time   41.7507
       DOS:  cpu time    0.0001: real time    0.0001
    CHARGE:  cpu time    0.9934: real time    0.9941
    MIXING:  cpu time    0.1532: real time    0.1533
    --------------------------------------------
      LOOP:  cpu time   44.1872: real time   44.3072

 eigenvalue-minimisations  :  1096
 total energy-change (2. order) :-0.3436670E+00  (-0.6467788E-03)
 number of electron     275.0001050 magnetization       2.8401199
 augmentation part      176.2984622 magnetization       1.9537576

 Broyden mixing:
  rms(total) = 0.25382E-01    rms(broyden)= 0.25380E-01
  rms(prec ) = 0.25767E-01
  weight for this iteration     100.00

 eigenvalues of (default mixing * dielectric matrix)
  average eigenvalue GAMMA=   1.8440
 12.2912  7.4533  3.4182  2.5570  1.4432  1.4432  1.1991  0.9935  0.9935  0.9130
  0.9130  0.6742  0.6742  0.6062  0.3824  0.3824  0.5230  0.5230  0.4267  0.4564
  0.4564

 Free energy of the ion-electron system (eV)
  ---------------------------------------------------
  alpha Z        PSCENC =        16.92888975
  Ewald energy   TEWEN  =     87931.46708748
  -Hartree energ DENC   =   -119431.56991746
  -exchange      EXHF   =         0.00000000
  -V(xc)+E(xc)   XCENC  =      1108.72502081
  PAW double counting   =     32396.10250196   -35079.35116894
  entropy T*S    EENTRO =         0.00000000
  eigenvalues    EBANDS =     -1785.59621972
  atomic energy  EATOM  =     34773.38961645
  Solvation  Ediel_sol  =         0.00000000
  ---------------------------------------------------
  free energy    TOTEN  =       -69.90418966 eV

  energy without entropy =      -69.90418966  energy(sigma->0) =      -69.90418966


--------------------------------------------------------------------------------------------------------




----------------------------------------- Iteration    1(  27)  ---------------------------------------


    POTLOK:  cpu time    1.3769: real time    1.3855
    SETDIJ:  cpu time    0.0207: real time    0.0207
     EDDAV:  cpu time   42.6643: real time   42.7463
       DOS:  cpu time    0.0001: real time    0.0001
    CHARGE:  cpu time    0.9971: real time    0.9981
    MIXING:  cpu time    0.1679: real time    0.1682
    --------------------------------------------
      LOOP:  cpu time   45.2305: real time   45.3250

 eigenvalue-minimisations  :  1144
 total energy-change (2. order) :-0.2346577E+00  (-0.4102274E-03)
 number of electron     275.0001050 magnetization       2.2236129
 augmentation part      176.2968567 magnetization       1.3428977

 Broyden mixing:
  rms(total) = 0.17387E-01    rms(broyden)= 0.17385E-01
  rms(prec ) = 0.17704E-01
  weight for this iteration     100.00

 eigenvalues of (default mixing * dielectric matrix)
  average eigenvalue GAMMA=   1.8848
 12.6104  8.2184  3.8794  2.5102  2.0161  1.3272  1.3272  0.9909  0.9909  0.9047
  0.9047  0.6979  0.6979  0.6401  0.6401  0.3825  0.3825  0.5181  0.4768  0.4768
  0.4288  0.4432

 Free energy of the ion-electron system (eV)
  ---------------------------------------------------
  alpha Z        PSCENC =        16.92888975
  Ewald energy   TEWEN  =     87931.46708748
  -Hartree energ DENC   =   -119429.23527759
  -exchange      EXHF   =         0.00000000
  -V(xc)+E(xc)   XCENC  =      1108.47940544
  PAW double counting   =     32396.58876520   -35079.85003027
  entropy T*S    EENTRO =         0.00000000
  eigenvalues    EBANDS =     -1787.90730383
  atomic energy  EATOM  =     34773.38961645
  Solvation  Ediel_sol  =         0.00000000
  ---------------------------------------------------
  free energy    TOTEN  =       -70.13884738 eV

  energy without entropy =      -70.13884738  energy(sigma->0) =      -70.13884738


--------------------------------------------------------------------------------------------------------




----------------------------------------- Iteration    1(  28)  ---------------------------------------


    POTLOK:  cpu time    1.3742: real time    1.3794
    SETDIJ:  cpu time    0.0215: real time    0.0216
     EDDAV:  cpu time   37.7409: real time   37.8322
       DOS:  cpu time    0.0001: real time    0.0001
    CHARGE:  cpu time    0.9804: real time    0.9815
    MIXING:  cpu time    0.1811: real time    0.1811
    --------------------------------------------
      LOOP:  cpu time   40.3018: real time   40.4024

 eigenvalue-minimisations  :   984
 total energy-change (2. order) :-0.7427944E-01  (-0.1568197E-03)
 number of electron     275.0001050 magnetization       1.7616101
 augmentation part      176.2972058 magnetization       0.8780406

 Broyden mixing:
  rms(total) = 0.12560E-01    rms(broyden)= 0.12558E-01
  rms(prec ) = 0.12821E-01
  weight for this iteration     100.00

 eigenvalues of (default mixing * dielectric matrix)
  average eigenvalue GAMMA=   1.9252
 13.0949  8.7681  4.3600  2.4370  2.4370  1.3754  1.3754  0.9926  0.9926  0.9918
  0.9083  0.9083  0.6739  0.6739  0.6560  0.5303  0.5303  0.3825  0.3825  0.4708
  0.4708  0.4282  0.4396

 Free energy of the ion-electron system (eV)
  ---------------------------------------------------
  alpha Z        PSCENC =        16.92888975
  Ewald energy   TEWEN  =     87931.46708748
  -Hartree energ DENC   =   -119428.62386917
  -exchange      EXHF   =         0.00000000
  -V(xc)+E(xc)   XCENC  =      1108.39855223
  PAW double counting   =     32397.70370722   -35080.99178410
  entropy T*S    EENTRO =         0.00000000
  eigenvalues    EBANDS =     -1788.48532667
  atomic energy  EATOM  =     34773.38961645
  Solvation  Ediel_sol  =         0.00000000
  ---------------------------------------------------
  free energy    TOTEN  =       -70.21312682 eV

  energy without entropy =      -70.21312682  energy(sigma->0) =      -70.21312682


--------------------------------------------------------------------------------------------------------




----------------------------------------- Iteration    1(  29)  ---------------------------------------


    POTLOK:  cpu time    1.3808: real time    1.3826
    SETDIJ:  cpu time    0.0216: real time    0.0217
     EDDAV:  cpu time   40.5585: real time   40.6621
       DOS:  cpu time    0.0001: real time    0.0001
    CHARGE:  cpu time    0.9773: real time    0.9780
    MIXING:  cpu time    0.1853: real time    0.1856
    --------------------------------------------
      LOOP:  cpu time   43.1274: real time   43.2362

 eigenvalue-minimisations  :  1064
 total energy-change (2. order) :-0.5493500E-01  (-0.9298795E-04)
 number of electron     275.0001050 magnetization       1.4919110
 augmentation part      176.3043117 magnetization       0.6130066

 Broyden mixing:
  rms(total) = 0.94705E-02    rms(broyden)= 0.94694E-02
  rms(prec ) = 0.96371E-02
  weight for this iteration     100.00

 eigenvalues of (default mixing * dielectric matrix)
  average eigenvalue GAMMA=   1.9457
 13.4426  9.2591  4.6551  2.7261  2.4564  1.3843  1.3843  1.2931  0.9913  0.9913
  0.9058  0.9058  0.6899  0.6899  0.6614  0.6614  0.3825  0.3825  0.5115  0.5115
  0.4716  0.4716  0.4263  0.4410

 Free energy of the ion-electron system (eV)
  ---------------------------------------------------
  alpha Z        PSCENC =        16.92888975
  Ewald energy   TEWEN  =     87931.46708748
  -Hartree energ DENC   =   -119428.13982341
  -exchange      EXHF   =         0.00000000
  -V(xc)+E(xc)   XCENC  =      1108.33220438
  PAW double counting   =     32396.31853140   -35079.52975497
  entropy T*S    EENTRO =         0.00000000
  eigenvalues    EBANDS =     -1789.03481290
  atomic energy  EATOM  =     34773.38961645
  Solvation  Ediel_sol  =         0.00000000
  ---------------------------------------------------
  free energy    TOTEN  =       -70.26806182 eV

  energy without entropy =      -70.26806182  energy(sigma->0) =      -70.26806182


--------------------------------------------------------------------------------------------------------




----------------------------------------- Iteration    1(  30)  ---------------------------------------


    POTLOK:  cpu time    1.3858: real time    1.3871
    SETDIJ:  cpu time    0.0209: real time    0.0211
     EDDAV:  cpu time   39.4966: real time   39.5885
       DOS:  cpu time    0.0001: real time    0.0001
    CHARGE:  cpu time    0.9964: real time    0.9971
    MIXING:  cpu time    0.2103: real time    0.2131
    --------------------------------------------
      LOOP:  cpu time   42.1136: real time   42.2131

 eigenvalue-minimisations  :  1032
 total energy-change (2. order) :-0.7749646E-01  (-0.4694420E-04)
 number of electron     275.0001050 magnetization       1.3290816
 augmentation part      176.3073680 magnetization       0.4525833

 Broyden mixing:
  rms(total) = 0.69958E-02    rms(broyden)= 0.69952E-02
  rms(prec ) = 0.71440E-02
  weight for this iteration     100.00

 eigenvalues of (default mixing * dielectric matrix)
  average eigenvalue GAMMA=   1.9733
 13.6961  9.7367  4.9331  3.1129  2.3379  1.9113  1.3145  1.3145  0.9920  0.9920
  0.9857  0.8958  0.8958  0.6750  0.6750  0.7063  0.5485  0.5485  0.3825  0.3825
  0.4861  0.4731  0.4731  0.4279  0.4350

 Free energy of the ion-electron system (eV)
  ---------------------------------------------------
  alpha Z        PSCENC =        16.92888975
  Ewald energy   TEWEN  =     87931.46708748
  -Hartree energ DENC   =   -119428.06393548
  -exchange      EXHF   =         0.00000000
  -V(xc)+E(xc)   XCENC  =      1108.26077441
  PAW double counting   =     32394.16533919   -35077.34279082
  entropy T*S    EENTRO =         0.00000000
  eigenvalues    EBANDS =     -1789.15053925
  atomic energy  EATOM  =     34773.38961645
  Solvation  Ediel_sol  =         0.00000000
  ---------------------------------------------------
  free energy    TOTEN  =       -70.34555828 eV

  energy without entropy =      -70.34555828  energy(sigma->0) =      -70.34555828


--------------------------------------------------------------------------------------------------------




----------------------------------------- Iteration    1(  31)  ---------------------------------------


    POTLOK:  cpu time    1.3826: real time    1.3835
    SETDIJ:  cpu time    0.0213: real time    0.0214
     EDDAV:  cpu time   40.3578: real time   40.4493
       DOS:  cpu time    0.0002: real time    0.0002
    CHARGE:  cpu time    0.9668: real time    0.9677
    MIXING:  cpu time    0.2076: real time    0.2078
    --------------------------------------------
      LOOP:  cpu time   42.9400: real time   43.0364

 eigenvalue-minimisations  :  1064
 total energy-change (2. order) :-0.6042341E-01  (-0.3150953E-04)
 number of electron     275.0001050 magnetization       1.2069522
 augmentation part      176.3036389 magnetization       0.3280722

 Broyden mixing:
  rms(total) = 0.45076E-02    rms(broyden)= 0.45070E-02
  rms(prec ) = 0.46134E-02
  weight for this iteration     100.00

 eigenvalues of (default mixing * dielectric matrix)
  average eigenvalue GAMMA=   1.9983
 14.0301 10.0266  5.3630  3.4867  2.3007  2.3007  1.3350  1.3350  0.9920  0.9920
  1.0797  0.9108  0.9108  0.7830  0.6830  0.6830  0.6094  0.5740  0.3825  0.3825
  0.5065  0.4806  0.4739  0.4739  0.4287  0.4325

 Free energy of the ion-electron system (eV)
  ---------------------------------------------------
  alpha Z        PSCENC =        16.92888975
  Ewald energy   TEWEN  =     87931.46708748
  -Hartree energ DENC   =   -119428.36876245
  -exchange      EXHF   =         0.00000000
  -V(xc)+E(xc)   XCENC  =      1108.21733917
  PAW double counting   =     32393.12448858   -35076.34561531
[...]
 -0.016   0.000  -0.000  -0.002   0.000   0.030  -0.000  -0.000  -0.000  -0.000   0.001  -0.000  -0.000  -0.000  -0.014   0.000
  0.000  -0.002   0.001   0.000   0.011  -0.000   0.028   0.001   0.000  -0.000  -0.016   0.001  -0.003  -0.007  -0.000   0.000
 -0.000   0.001  -0.011  -0.000  -0.004  -0.000   0.001   0.025  -0.000   0.000   0.001   0.000   0.011   0.002  -0.000  -0.001
 -0.002   0.000  -0.000  -0.008  -0.000  -0.000   0.000  -0.000   0.026  -0.000  -0.000   0.000  -0.000  -0.000   0.006   0.000
  0.000   0.011  -0.004  -0.000  -0.005  -0.000  -0.000   0.000  -0.000   0.026   0.001  -0.000   0.012   0.006   0.000  -0.001
 -0.000  -0.016  -0.006  -0.001  -0.022   0.001  -0.016   0.001  -0.000   0.001   2.021  -0.223  -0.020   0.001  -0.000   0.003
 -0.000  -0.001   0.002   0.000   0.003  -0.000   0.001   0.000   0.000  -0.000  -0.223   0.029   0.008   0.001   0.000  -0.000
 -0.000  -0.012   0.002  -0.000  -0.011  -0.000  -0.003   0.011  -0.000   0.012  -0.020   0.008   0.303  -0.016   0.001  -0.021
 -0.000   0.017   0.003   0.000   0.003  -0.000  -0.007   0.002  -0.000   0.006   0.001   0.001  -0.016   0.296  -0.000   0.001
  0.005  -0.000   0.001   0.005  -0.001  -0.014  -0.000  -0.000   0.006   0.000  -0.000   0.000   0.001  -0.000   0.294  -0.000
 -0.000  -0.000   0.000  -0.000   0.000   0.000   0.000  -0.001   0.000  -0.001   0.003  -0.000  -0.021   0.001  -0.000   0.002
 -0.000  -0.002  -0.001  -0.000   0.000   0.000   0.000   0.000   0.000  -0.000   0.000  -0.000   0.001  -0.021   0.000  -0.000
 -0.002  -0.000  -0.001  -0.000   0.001   0.000   0.000   0.000  -0.000  -0.000   0.000  -0.000  -0.000   0.000  -0.021   0.000
 total augmentation occupancy for first ion, spin component:           2
 -0.000   0.000   0.000   0.000   0.000   0.000  -0.000  -0.000   0.000  -0.000   0.001   0.000   0.000   0.000   0.000   0.000
  0.000   0.010   0.001   0.000   0.009  -0.000  -0.004   0.000  -0.000  -0.004   0.015   0.003   0.004   0.001   0.000   0.000
  0.000   0.001  -0.000   0.000   0.000  -0.000  -0.000   0.000  -0.000  -0.000   0.001   0.000   0.000   0.000   0.000   0.000
  0.000   0.000   0.000   0.000   0.000   0.000  -0.000  -0.000   0.000  -0.000   0.000   0.000   0.000   0.000   0.000   0.000
  0.000   0.009   0.000   0.000   0.008  -0.000  -0.004  -0.000  -0.000  -0.003   0.013   0.003   0.003   0.000   0.000   0.000
  0.000  -0.000  -0.000   0.000  -0.000  -0.000   0.000   0.000  -0.000   0.000  -0.000  -0.000  -0.000   0.000   0.000   0.000
 -0.000  -0.004  -0.000  -0.000  -0.004   0.000   0.001   0.000   0.000   0.001  -0.006  -0.001  -0.001  -0.000  -0.000   0.000
 -0.000   0.000   0.000  -0.000  -0.000   0.000   0.000  -0.000   0.000   0.000  -0.000  -0.000  -0.000  -0.000  -0.000   0.000
  0.000  -0.000  -0.000   0.000  -0.000  -0.000   0.000   0.000  -0.000   0.000  -0.000  -0.000  -0.000   0.000  -0.000   0.000
 -0.000  -0.004  -0.000  -0.000  -0.003   0.000   0.001   0.000   0.000   0.001  -0.005  -0.001  -0.001  -0.000  -0.000   0.000
  0.001   0.015   0.001   0.000   0.013  -0.000  -0.006  -0.000  -0.000  -0.005   0.027   0.003   0.008   0.000   0.000  -0.000
  0.000   0.003   0.000   0.000   0.003  -0.000  -0.001  -0.000  -0.000  -0.001   0.003   0.000   0.001   0.000   0.000   0.000
  0.000   0.004   0.000   0.000   0.003  -0.000  -0.001  -0.000  -0.000  -0.001   0.008   0.001   0.002  -0.000   0.000  -0.000
  0.000   0.001   0.000   0.000   0.000   0.000  -0.000  -0.000   0.000  -0.000   0.000   0.000  -0.000  -0.000  -0.000   0.000
  0.000   0.000   0.000   0.000   0.000   0.000  -0.000  -0.000  -0.000  -0.000   0.000   0.000   0.000  -0.000  -0.001   0.000
  0.000   0.000   0.000   0.000   0.000   0.000   0.000   0.000   0.000   0.000  -0.000   0.000  -0.000   0.000   0.000   0.000
  0.000   0.000   0.000   0.000  -0.000   0.000  -0.000   0.000  -0.000   0.000   0.000  -0.000   0.000   0.000   0.000  -0.000
  0.000   0.000  -0.000   0.000   0.000  -0.000  -0.000   0.000   0.000  -0.000   0.000   0.000   0.000   0.000   0.000  -0.000


------------------------ aborting loop because EDIFF is reached ----------------------------------------


 


 total charge     
 
# of ion     s       p       d       tot
----------------------------------------
  1        0.477   0.471   9.213  10.160
  2        0.428   0.259   9.227   9.914
  3        0.477   0.470   9.213  10.160
  4        0.427   0.256   9.228   9.911
  5        0.450   0.174   9.268   9.892
  6        0.450   0.174   9.268   9.892
  7        0.426   0.242   9.242   9.909
  8        0.445   0.183   9.267   9.895
  9        0.436   0.196   9.267   9.898
 10        0.437   0.208   9.250   9.895
 11        0.436   0.197   9.266   9.900
 12        0.461   0.197   9.247   9.906
 13        0.461   0.195   9.247   9.903
 14        0.428   0.259   9.227   9.914
 15        0.461   0.308   9.183   9.952
 16        0.461   0.310   9.183   9.954
 17        0.427   0.256   9.228   9.911
 18        0.426   0.241   9.242   9.909
 19        0.487   0.475   9.207  10.169
 20        0.436   0.197   9.266   9.899
 21        0.437   0.208   9.250   9.895
 22        0.436   0.196   9.266   9.899
 23        0.462   0.197   9.247   9.905
 24        0.446   0.185   9.266   9.896
 25        0.461   0.198   9.247   9.906
------------------------------------------------
tot       11.178   6.251 231.015 248.445
 


 magnetization (x)
 
# of ion     s       p       d       tot
----------------------------------------
  1        0.013   0.001   0.024   0.038
  2        0.004   0.008   0.010   0.022
  3        0.013   0.001   0.024   0.038
  4        0.004   0.008   0.010   0.022
  5       -0.000   0.003   0.007   0.010
  6       -0.000   0.003   0.007   0.009
  7        0.002   0.006   0.008   0.016
  8        0.015  -0.000  -0.002   0.012
  9        0.002   0.005   0.007   0.015
 10        0.004   0.007   0.009   0.020
 11        0.002   0.005   0.008   0.015
 12        0.004   0.004   0.005   0.013
 13        0.003   0.004   0.005   0.012
 14        0.004   0.007   0.010   0.022
 15        0.002   0.009   0.008   0.020
 16        0.001   0.009   0.008   0.018
 17        0.004   0.008   0.010   0.022
 18        0.002   0.006   0.008   0.016
 19        0.031   0.001  -0.002   0.030
 20        0.002   0.005   0.007   0.015
 21        0.004   0.007   0.009   0.020
 22        0.002   0.005   0.007   0.015
 23        0.003   0.004   0.005   0.012
 24        0.015  -0.000  -0.002   0.012
 25        0.004   0.004   0.005   0.013
------------------------------------------------
tot        0.138   0.118   0.200   0.456
 
    CHARGE:  cpu time    0.9850: real time    0.9858
    FORLOC:  cpu time    0.0939: real time    0.0942
    FORNL :  cpu time   11.6580: real time   11.6766
    STRESS:  cpu time   40.7357: real time   40.8308
    FORCOR:  cpu time    1.4061: real time    1.4106
    FORHAR:  cpu time    0.2350: real time    0.2354
    MIXING:  cpu time    0.0428: real time    0.0428
    OFIELD:  cpu time    0.0001: real time    0.0001

  FORCE on cell =-STRESS in cart. coord.  units (eV):
  Direction    XX          YY          ZZ          XY          YZ          ZX
  --------------------------------------------------------------------------------------
  Alpha Z    16.92889    16.92889    16.92889
  Ewald   20346.09682 42461.24667 24977.39171   -23.10046    22.14847     3.94214
  Hartree 31464.01974 52172.82629 35647.89741   -22.71170    23.10541     1.05508
  E(xc)   -1606.00630 -1604.22817 -1605.43581    -0.00037    -0.00203     0.00550
  Local  -54249.63571-97068.72646-63051.43834    45.91630   -45.42916    -4.71072
  n-local  -592.85762  -585.05610  -592.69577     0.03365    -0.08992    -0.03987
  augment  2354.44122  2348.29551  2348.26028    -0.03380     0.09459    -0.11605
  Kinetic  2259.42679  2251.64273  2251.97040    -0.01640     0.02699    -0.13925
  Fock        0.00000     0.00000     0.00000     0.00000     0.00000     0.00000
  -------------------------------------------------------------------------------------
  Total      -7.58617    -7.07065    -7.12122     0.08722    -0.14563    -0.00319
  in kB      -0.45016    -0.41957    -0.42257     0.00518    -0.00864    -0.00019
  external pressure =       -0.43 kB  Pullay stress =        0.00 kB


 VOLUME and BASIS-vectors are now :
 -----------------------------------------------------------------------------
  energy-cutoff  :      295.45
  volume of cell :    27000.00
      direct lattice vectors                 reciprocal lattice vectors
    30.000000000  0.000000000  0.000000000     0.033333333  0.000000000  0.000000000
     0.000000000 30.000000000  0.000000000     0.000000000  0.033333333  0.000000000
     0.000000000  0.000000000 30.000000000     0.000000000  0.000000000  0.033333333

  length of vectors
    30.000000000 30.000000000 30.000000000     0.033333333  0.033333333  0.033333333


 FORCES acting on ions
    electron-ion (+dipol)            ewald-force                    non-local-force                 convergence-correction
 -----------------------------------------------------------------------------------------------
   -.221E+01 0.783E+03 -.261E+03   0.224E+01 -.781E+03 0.261E+03   -.396E-01 -.167E+01 0.325E-01   -.248E-02 0.162E-01 0.735E-02
   -.169E+04 -.576E+03 0.602E+03   0.169E+04 0.573E+03 -.600E+03   0.400E+01 0.237E+01 -.194E+01   0.867E-02 0.139E-02 -.120E-02
   0.423E-01 -.779E+03 -.259E+03   -.314E-01 0.777E+03 0.259E+03   -.323E-01 0.164E+01 0.419E-01   0.101E-02 -.126E-01 0.580E-02
   0.170E+04 -.577E+03 0.601E+03   -.169E+04 0.574E+03 -.599E+03   -.418E+01 0.244E+01 -.199E+01   -.414E-02 -.962E-03 -.199E-03
   0.917E+03 0.190E+01 0.178E+04   -.914E+03 -.188E+01 -.177E+04   -.380E+01 -.418E-01 -.753E+01   -.129E-01 0.170E-02 0.390E-02
   -.921E+03 0.707E+00 0.178E+04   0.917E+03 -.683E+00 -.177E+04   0.376E+01 -.450E-01 -.755E+01   0.106E-01 0.305E-02 0.236E-03
   0.315E+01 -.109E+04 0.156E+04   -.316E+01 0.109E+04 -.155E+04   -.144E-01 0.128E+01 -.548E+01   0.206E-02 0.234E-02 -.599E-02
   0.599E-01 0.166E+04 -.993E+03   -.136E+00 -.165E+04 0.988E+03   0.624E-01 -.583E+01 0.542E+01   -.189E-02 -.769E-03 0.458E-02
   -.146E+04 0.911E+03 -.927E+03   0.145E+04 -.909E+03 0.922E+03   0.653E+01 -.190E+01 0.472E+01   0.348E-02 0.254E-02 0.397E-02
   0.107E+01 0.496E+03 -.186E+04   -.110E+01 -.492E+03 0.185E+04   0.759E-02 -.419E+01 0.676E+01   0.678E-03 -.538E-03 0.517E-02
   0.146E+04 0.914E+03 -.926E+03   -.145E+04 -.912E+03 0.922E+03   -.657E+01 -.195E+01 0.462E+01   -.628E-02 0.155E-02 0.452E-02
   0.891E+03 0.165E+04 0.530E+03   -.887E+03 -.164E+04 -.527E+03   -.351E+01 -.535E+01 -.260E+01   -.123E-01 0.187E-02 -.638E-02
   -.898E+03 0.164E+04 0.530E+03   0.895E+03 -.163E+04 -.527E+03   0.343E+01 -.540E+01 -.260E+01   0.548E-02 -.247E-02 -.602E-02
   -.170E+04 0.574E+03 0.601E+03   0.169E+04 -.571E+03 -.599E+03   0.401E+01 -.239E+01 -.192E+01   0.665E-02 -.206E-02 -.412E-02
   -.131E+04 -.718E+00 -.953E+03   0.131E+04 0.716E+00 0.952E+03   -.834E+00 -.678E-02 0.347E+00   0.518E-02 -.108E-02 -.313E-02
   0.131E+04 -.184E+01 -.949E+03   -.132E+04 0.182E+01 0.949E+03   0.915E+00 0.125E-01 0.253E+00   -.570E-02 -.435E-02 -.286E-02
   0.170E+04 0.578E+03 0.600E+03   -.169E+04 -.575E+03 -.598E+03   -.415E+01 -.249E+01 -.199E+01   -.401E-02 -.548E-03 -.134E-02
   0.215E+01 0.110E+04 0.156E+04   -.216E+01 -.110E+04 -.155E+04   -.154E-01 -.131E+01 -.551E+01   0.832E-03 0.419E-02 -.584E-02
   0.497E+01 0.221E+01 0.617E+03   -.492E+01 -.220E+01 -.616E+03   -.698E-01 -.213E-01 -.115E+01   0.328E-02 0.150E-03 -.788E-02
   0.146E+04 -.915E+03 -.925E+03   -.145E+04 0.913E+03 0.920E+03   -.662E+01 0.182E+01 0.464E+01   -.440E-02 -.850E-02 0.483E-02
   0.147E+01 -.497E+03 -.186E+04   -.148E+01 0.493E+03 0.185E+04   -.786E-02 0.415E+01 0.680E+01   0.995E-03 -.339E-02 0.118E-02
   -.146E+04 -.913E+03 -.926E+03   0.145E+04 0.911E+03 0.922E+03   0.653E+01 0.184E+01 0.471E+01   0.522E-02 -.326E-02 0.164E-02
   -.896E+03 -.164E+04 0.534E+03   0.892E+03 0.164E+04 -.531E+03   0.341E+01 0.534E+01 -.263E+01   0.600E-02 0.256E-02 -.309E-02
   -.191E+01 -.166E+04 -.990E+03   0.182E+01 0.165E+04 0.985E+03   0.776E-01 0.583E+01 0.534E+01   -.159E-02 0.666E-03 0.638E-02
   0.889E+03 -.164E+04 0.535E+03   -.886E+03 0.164E+04 -.533E+03   -.347E+01 0.533E+01 -.264E+01   -.951E-02 -.181E-02 -.320E-02
 -----------------------------------------------------------------------------------------------
   0.137E+00 0.270E+00 0.200E+01   -.114E-12 -.159E-11 -.796E-12   -.580E+00 -.550E+00 -.185E+01   -.513E-02 -.411E-02 -.171E-02
 
 
 POSITION                                       TOTAL-FORCE (eV/Angst)
 -----------------------------------------------------------------------------------
     10.81017      8.89515     11.16014         0.001261     -0.008370      0.003244
     12.91707     12.08238      9.93799        -0.012295     -0.002657     -0.002803
     10.80603     12.71161     11.15965        -0.002471      0.008551      0.004550
      8.68638     12.08295      9.93722         0.006370     -0.001377     -0.001510
      9.52009     10.80163      7.86352         0.011274     -0.003134      0.006877
     12.09968     10.80272      7.86971        -0.004021     -0.006538      0.011750
     10.80142     12.94860      8.66146        -0.002081     -0.010673      0.011114
     10.80735      6.89083     12.36292         0.002401     -0.003436     -0.008166
     12.86769      8.37378     12.20161        -0.006633     -0.000135     -0.009054
     10.80274      9.55440     13.47088        -0.004213      0.008012     -0.014951
      8.75525      8.37953     12.20352         0.012123      0.000395     -0.011014
      9.55590      7.09563     10.18954         0.016609     -0.006113      0.012102
     12.08235      7.09700     10.18741        -0.008622      0.004451      0.011518
     12.91993      9.53870      9.93644        -0.009801      0.000775      0.004643
     12.35782     10.80749     12.01449        -0.010764      0.001947     -0.002995
      9.25878     10.81007     12.00999         0.007882      0.005633     -0.002454
      8.68678      9.53573      9.93660         0.007120     -0.000961      0.002306
     10.80417      8.65220      8.66081        -0.001285     -0.000135      0.013922
     10.80046     10.80179      9.81615        -0.007101     -0.000512     -0.001328
      8.75569     13.25508     12.20364         0.005979      0.006580     -0.013144
     10.80230     12.07196     13.47087        -0.003997     -0.002561     -0.004865
     12.86277     13.24658     12.20214        -0.009578      0.000662     -0.006032
     12.07493     14.51334     10.18826        -0.009630     -0.003035      0.004291
     10.80506     14.72557     12.35968         0.005388      0.006738     -0.012754
      9.55206     14.51818     10.18825         0.016084      0.005894      0.004751
 -----------------------------------------------------------------------------------
    total drift:                               -0.447883     -0.284652      0.148253


--------------------------------------------------------------------------------------------------------



  FREE ENERGIE OF THE ION-ELECTRON SYSTEM (eV)
  ---------------------------------------------------
  free  energy   TOTEN  =       -70.45714134 eV

  energy  without entropy=      -70.45714134  energy(sigma->0) =      -70.45714134
 
 d Force = 0.3693444E-03[ 0.271E-03, 0.468E-03]  d Energy = 0.3759634E-03-0.662E-05
 d Force =-0.1958197E+02[-0.196E+02,-0.196E+02]  d Ewald  =-0.1958197E+02-0.144E-05


--------------------------------------------------------------------------------------------------------


    POTLOK:  cpu time    1.4122: real time    1.4147


--------------------------------------------------------------------------------------------------------


 Conjugate gradient step on ions:
 trial-energy change:   -0.000376  1 .order   -0.000369   -0.000468   -0.000271
  (g-gl).g = 0.438E-03      g.g   = 0.507E-03  gl.gl    = 0.194E-02
 g(Force)  = 0.507E-03   g(Stress)= 0.000E+00 ortho     =-0.512E-04
 gamma     =   0.22629
 trial     =   0.94362
 opt step  =   1.87035  (harmonic =   2.24055) maximal distance =0.00369105
 next E    =   -70.457281   (d E  =  -0.00052)


--------------------------------------------------------------------------------------------------------


  
 reached required accuracy - stopping structural energy minimisation
     LOOP+:  cpu time  299.3963: real time  300.1049
    4ORBIT:  cpu time    0.0000: real time    0.0000
 


 total charge     
 
# of ion     s       p       d       tot
----------------------------------------
  1        0.477   0.471   9.213  10.160
  2        0.428   0.259   9.227   9.914
  3        0.477   0.470   9.213  10.160
  4        0.427   0.256   9.228   9.911
  5        0.450   0.174   9.268   9.892
  6        0.450   0.174   9.268   9.892
  7        0.426   0.242   9.242   9.909
  8        0.445   0.183   9.267   9.895
  9        0.436   0.196   9.267   9.898
 10        0.437   0.208   9.250   9.895
 11        0.436   0.197   9.266   9.900
 12        0.461   0.197   9.247   9.906
 13        0.461   0.195   9.247   9.903
 14        0.428   0.259   9.227   9.914
 15        0.461   0.308   9.183   9.952
 16        0.461   0.310   9.183   9.954
 17        0.427   0.256   9.228   9.911
 18        0.426   0.241   9.242   9.909
 19        0.487   0.475   9.207  10.169
 20        0.436   0.197   9.266   9.899
 21        0.437   0.208   9.250   9.895
 22        0.436   0.196   9.266   9.899
 23        0.462   0.197   9.247   9.905
 24        0.446   0.185   9.266   9.896
 25        0.461   0.198   9.247   9.906
------------------------------------------------
tot       11.178   6.251 231.015 248.445
 


 magnetization (x)
 
# of ion     s       p       d       tot
----------------------------------------
  1        0.013   0.001   0.024   0.038
  2        0.004   0.008   0.010   0.022
  3        0.013   0.001   0.024   0.038
  4        0.004   0.008   0.010   0.022
  5       -0.000   0.003   0.007   0.010
  6       -0.000   0.003   0.007   0.009
  7        0.002   0.006   0.008   0.016
  8        0.015  -0.000  -0.002   0.012
  9        0.002   0.005   0.007   0.015
 10        0.004   0.007   0.009   0.020
 11        0.002   0.005   0.008   0.015
 12        0.004   0.004   0.005   0.013
 13        0.003   0.004   0.005   0.012
 14        0.004   0.007   0.010   0.022
 15        0.002   0.009   0.008   0.020
 16        0.001   0.009   0.008   0.018
 17        0.004   0.008   0.010   0.022
 18        0.002   0.006   0.008   0.016
 19        0.031   0.001  -0.002   0.030
 20        0.002   0.005   0.007   0.015
 21        0.004   0.007   0.009   0.020
 22        0.002   0.005   0.007   0.015
 23        0.003   0.004   0.005   0.012
 24        0.015  -0.000  -0.002   0.012
 25        0.004   0.004   0.005   0.013
------------------------------------------------
tot        0.138   0.118   0.200   0.456
 

 total amount of memory used by VASP on root node   194476. kBytes
========================================================================

   base      :      30000. kBytes
   nonl-proj :      14091. kBytes
   fftplans  :      30597. kBytes
   grid      :      77361. kBytes
   one-center:         77. kBytes
   wavefun   :      42350. kBytes
 
  
  
 General timing and accounting informations for this job:
 ========================================================
  
                  Total CPU time used (sec):     4199.930
                            User time (sec):     4131.140
                          System time (sec):       68.790
                         Elapsed time (sec):     4211.542
  
                   Maximum memory used (kb):      336328.
                   Average memory used (kb):           0.
  
                          Minor page faults:      3618065
                          Major page faults:            2
                 Voluntary context switches:         3412
