 vasp.5.4.4.18Apr17-6-g9f103f2a35 (build Jan 10 2020 15:46:39) gamma-only       
  
 executed on             LinuxIFC date 2022.06.18  06:47:30
 running on   64 total cores
 distrk:  each k-point on   64 cores,    1 groups
 distr:  one band on NCORES_PER_BAND=  16 cores,    4 groups


--------------------------------------------------------------------------------------------------------


 INCAR:
 POTCAR:    PAW_PBE Cu 22Jun2005                  
 POTCAR:    PAW_PBE Cu 22Jun2005                  
   VRHFIN =Cu: d10 p1                                                           
   LEXCH  = PE                                                                  
   EATOM  =  1390.9808 eV,  102.2342 Ry                                         
                                                                                
   TITEL  = PAW_PBE Cu 22Jun2005                                                
   LULTRA =        F    use ultrasoft PP ?                                      
   IUNSCR =        1    unscreen: 0-lin 1-nonlin 2-no                           
   RPACOR =    2.000    partial core radius                                     
   POMASS =   63.546; ZVAL   =   11.000    mass and valenz                      
   RCORE  =    2.300    outmost cutoff radius                                   
   RWIGS  =    2.200; RWIGS  =    1.164    wigner-seitz radius (au A)           
   ENMAX  =  295.446; ENMIN  =  221.585 eV                                      
   ICORE  =        3    local potential                                         
   LCOR   =        T    correct aug charges                                     
   LPAW   =        T    paw PP                                                  
   EAUG   =  586.980                                                            
   DEXC   =    0.000                                                            
   RMAX   =    2.344    core radius for proj-oper                               
   RAUG   =    1.300    factor for augmentation sphere                          
   RDEP   =    2.302    radius for radial grids                                 
   RDEPT  =    1.771    core radius for aug-charge                              
                                                                                
   Atomic configuration                                                         
    9 entries                                                                   
     n  l   j            E        occ.                                          
     1  0  0.50     -8850.2468   2.0000                                         
     2  0  0.50     -1062.3498   2.0000                                         
     2  1  1.50      -916.8226   6.0000                                         
     3  0  0.50      -114.6929   2.0000                                         
     3  1  1.50       -72.1325   6.0000                                         
     3  2  2.50        -5.0394  10.0000                                         
     4  0  0.50        -4.6097   1.0000                                         
     4  1  0.50        -4.0817   0.0000                                         
     4  3  2.50        -1.3606   0.0000                                         
   Description                                                                  
     l       E           TYP  RCUT    TYP  RCUT                                 
     2     -5.0393973     23  2.200                                             
     2     10.8846608     23  2.200                                             
     0     -4.6097109     23  2.200                                             
     0      8.2520465     23  2.200                                             
     1     -2.7211652     23  2.200                                             
     1     21.7055443     23  2.200                                             
     3      2.7211652     23  2.300                                             
  local pseudopotential read in
  partial core-charges read in
  partial kinetic energy density read in
  atomic valenz-charges read in
  non local Contribution for L=           2  read in
    real space projection operators read in
  non local Contribution for L=           2  read in
    real space projection operators read in
  non local Contribution for L=           0  read in
    real space projection operators read in
  non local Contribution for L=           0  read in
    real space projection operators read in
  non local Contribution for L=           1  read in
    real space projection operators read in
  non local Contribution for L=           1  read in
    real space projection operators read in
    PAW grid and wavefunctions read in
 
   number of l-projection  operators is LMAX  =           6
   number of lm-projection operators is LMMAX =          18
 

 ----------------------------------------------------------------------------- 
|                                                                             |
|  ADVICE TO THIS USER RUNNING 'VASP/VAMP'   (HEAR YOUR MASTER'S VOICE ...):  |
|                                                                             |
|      You have a (more or less) 'large supercell' and for larger cells       |
|      it might be more efficient to use real space projection opertators     |
|      So try LREAL= Auto  in the INCAR   file.                               |
|      Mind:          For very  accurate calculation you might also keep the  |
|      reciprocal projection scheme          (i.e. LREAL=.FALSE.)             |
|                                                                             |
 ----------------------------------------------------------------------------- 

  PAW_PBE Cu 22Jun2005                  :
 energy of atom  1       EATOM=-1390.9808
 kinetic energy error for atom=    0.0452 (will be added to EATOM!!)
 
 
 POSCAR: Unknown Structure <s> Cu </s>           
  positions in direct lattice
  velocities in cartesian coordinates
 exchange correlation table for  LEXCH =        8
   RHO(1)=    0.500       N(1)  =     2000
   RHO(2)=  100.500       N(2)  =     4000
 


--------------------------------------------------------------------------------------------------------


 ion  position               nearest neighbor table
   1  0.329  0.318  0.199-   2 2.39   7 2.43  12 2.48  10 2.53   3 2.56   8 2.58
   2  0.259  0.283  0.184-   5 2.37   8 2.38   1 2.39   4 2.48   3 2.51
   3  0.327  0.234  0.188-  12 2.40   6 2.46   2 2.51   1 2.56  11 2.56  10 2.62   5 2.65
   4  0.197  0.285  0.239-  14 2.41   9 2.44   2 2.48   5 2.49  17 2.57   8 2.60  19 2.66
   5  0.253  0.223  0.236-   2 2.37  13 2.41  11 2.44  17 2.45  12 2.49   4 2.49  20 2.62   3 2.65
                            14 2.77
   6  0.390  0.193  0.222-  10 2.38  11 2.38   3 2.46  18 2.47
   7  0.319  0.350  0.273-  22 2.41   8 2.42   1 2.43  15 2.44  16 2.54  14 2.55  12 2.60
   8  0.254  0.350  0.226-   2 2.38   7 2.42   9 2.49  14 2.55  16 2.55   1 2.58   4 2.60
   9  0.180  0.361  0.262-  21 2.41   4 2.44  16 2.45  19 2.49   8 2.49
  10  0.392  0.272  0.231-  12 2.34   6 2.38   1 2.53  15 2.56   3 2.62  18 2.65
  11  0.317  0.176  0.251-   6 2.38  20 2.43   5 2.44  13 2.53  18 2.55   3 2.56  12 2.66
  12  0.321  0.264  0.262-  10 2.34  14 2.35  18 2.39   3 2.40  15 2.46   1 2.48   5 2.49  20 2.50
                             7 2.60  11 2.66
  13  0.240  0.157  0.279-  20 2.41   5 2.41  17 2.50  11 2.53
  14  0.256  0.296  0.292-  12 2.35  25 2.41   4 2.41  19 2.42  16 2.47  17 2.51  22 2.54   8 2.55
                             7 2.55   5 2.77  20 2.78
  15  0.375  0.303  0.309-  23 2.38   7 2.44  12 2.46  10 2.56  18 2.58  22 2.62
  16  0.246  0.377  0.307-  21 2.44   9 2.45  24 2.46  14 2.47   7 2.54   8 2.55  22 2.55
  17  0.207  0.229  0.303-  20 2.44   5 2.45  19 2.47  13 2.50  14 2.51   4 2.57  25 2.58
  18  0.374  0.218  0.299-  12 2.39   6 2.47  23 2.51  11 2.55  15 2.58  10 2.65  20 2.70
  19  0.182  0.305  0.324-  21 2.41  14 2.42  17 2.47  24 2.47   9 2.49   4 2.66  25 2.67
  20  0.286  0.212  0.316-  23 2.36  13 2.41  11 2.43  17 2.44  25 2.50  12 2.50   5 2.62  18 2.70
                            14 2.78
  21  0.172  0.383  0.339-  24 2.40   9 2.41  19 2.41  16 2.44
  22  0.305  0.334  0.350-  23 2.39   7 2.41  24 2.48  14 2.54  16 2.55  15 2.62  25 2.62
  23  0.332  0.259  0.358-  20 2.36  15 2.38  22 2.39  25 2.46  18 2.51
  24  0.228  0.344  0.380-  21 2.40  25 2.43  16 2.46  19 2.47  22 2.48
  25  0.251  0.267  0.367-  14 2.41  24 2.43  23 2.46  20 2.50  17 2.58  22 2.62  19 2.67
 

IMPORTANT INFORMATION: All symmetrisations will be switched off!
NOSYMM: (Re-)initialisation of all symmetry stuff for point group C_1.

 
 
 KPOINTS: Gamma-point only                        
  k-points in reciprocal lattice
Space group operators:
 irot       det(A)        alpha          n_x          n_y          n_z        tau_x        tau_y        tau_z
    1     1.000000     0.000000     1.000000     0.000000     0.000000     0.000000     0.000000     0.000000


--------------------------------------------------------------------------------------------------------




 Dimension of arrays:
   k-points           NKPTS =      1   k-points in BZ     NKDIM =      1   number of bands    NBANDS=    204
   number of dos      NEDOS =    301   number of ions     NIONS =     25
   non local maximal  LDIM  =      6   non local SUM 2l+1 LMDIM =     18
   total plane-waves  NPLWV = ******
   max r-space proj   IRMAX =      1   max aug-charges    IRDMAX=   2345
   dimension x,y,z NGX =   126 NGY =  126 NGZ =  126
   dimension x,y,z NGXF=   252 NGYF=  252 NGZF=  252
   support grid    NGXF=   252 NGYF=  252 NGZF=  252
   ions per type =              25
   NGX,Y,Z   is equivalent  to a cutoff of   6.98,  6.98,  6.98 a.u.
   NGXF,Y,Z  is equivalent  to a cutoff of  13.96, 13.96, 13.96 a.u.

 SYSTEM =  unknown system                          
 POSCAR =  Unknown Structure <s> Cu </s>           

 Startparameter for this run:
   NWRITE =      2    write-flag & timer
   PREC   = normal    normal or accurate (medium, high low for compatibility)
   ISTART =      0    job   : 0-new  1-cont  2-samecut
   ICHARG =      2    charge: 1-file 2-atom 10-const
   ISPIN  =      2    spin polarized calculation?
   LNONCOLLINEAR =      F non collinear calculations
   LSORBIT =      F    spin-orbit coupling
   INIWAV =      1    electr: 0-lowe 1-rand  2-diag
   LASPH  =      F    aspherical Exc in radial PAW
   METAGGA=      F    non-selfconsistent MetaGGA calc.

 Electronic Relaxation 1
   ENCUT  =  295.4 eV  21.71 Ry    4.66 a.u.  42.05 42.05 42.05*2*pi/ulx,y,z
   ENINI  =  295.4     initial cutoff
   ENAUG  =  587.0 eV  augmentation charge cutoff
   NELM   =     60;   NELMIN=  2; NELMDL=  0     # of ELM steps 
   EDIFF  = 0.1E-05   stopping-criterion for ELM
   LREAL  =      F    real-space projection
   NLSPLINE    = F    spline interpolate recip. space projectors
   LCOMPAT=      F    compatible to vasp.4.4
   GGA_COMPAT  = T    GGA compatible to vasp.4.4-vasp.4.6
   LMAXPAW     = -100 max onsite density
   LMAXMIX     =    2 max onsite mixed and CHGCAR
   VOSKOWN=      0    Vosko Wilk Nusair interpolation
   ROPT   =    0.00000
 Ionic relaxation
   EDIFFG = -.3E-01   stopping-criterion for IOM
   NSW    =    100    number of steps for IOM
   NBLOCK =      1;   KBLOCK =    100    inner block; outer block 
   IBRION =      2    ionic relax: 0-MD 1-quasi-New 2-CG
   NFREE  =      1    steps in history (QN), initial steepest desc. (CG)
   ISIF   =      2    stress and relaxation
   IWAVPR =     11    prediction:  0-non 1-charg 2-wave 3-comb
   ISYM   =      0    0-nonsym 1-usesym 2-fastsym
   LCORR  =      T    Harris-Foulkes like correction to forces

   POTIM  = 0.5000    time-step for ionic-motion
   TEIN   =    0.0    initial temperature
   TEBEG  =    0.0;   TEEND  =   0.0 temperature during run
   SMASS  =  -3.00    Nose mass-parameter (am)
   estimated Nose-frequenzy (Omega)   =  0.10E-29 period in steps =****** mass=  -0.206E-25a.u.
   SCALEE = 1.0000    scale energy and forces
   NPACO  =    256;   APACO  = 16.0  distance and # of slots for P.C.
   PSTRESS=    0.0 pullay stress

  Mass of Ions in am
   POMASS =  63.55
  Ionic Valenz
   ZVAL   =  11.00
  Atomic Wigner-Seitz radii
   RWIGS  =  -1.00
  virtual crystal weights 
   VCA    =   1.00
   NELECT =     275.0000    total number of electrons
   NUPDOWN=      -1.0000    fix difference up-down

 DOS related values:
   EMIN   =  10.00;   EMAX   =-10.00  energy-range for DOS
   EFERMI =   0.00
   ISMEAR =     0;   SIGMA  =   0.00  broadening in eV -4-tet -1-fermi 0-gaus

 Electronic relaxation 2 (details)
   IALGO  =     38    algorithm
   LDIAG  =      T    sub-space diagonalisation (order eigenvalues)
   LSUBROT=      F    optimize rotation matrix (better conditioning)
   TURBO    =      0    0=normal 1=particle mesh
   IRESTART =      0    0=no restart 2=restart with 2 vectors
   NREBOOT  =      0    no. of reboots
   NMIN     =      0    reboot dimension
   EREF     =   0.00    reference energy to select bands
   IMIX   =      4    mixing-type and parameters
     AMIX     =   0.40;   BMIX     =  1.00
     AMIX_MAG =   1.60;   BMIX_MAG =  1.00
     AMIN     =   0.10
     WC   =   100.;   INIMIX=   1;  MIXPRE=   1;  MAXMIX= -45

 Intra band minimization:
   WEIMIN = 0.0010     energy-eigenvalue tresh-hold
   EBREAK =  0.12E-08  absolut break condition
   DEPER  =   0.30     relativ break condition  

   TIME   =   0.40     timestep for ELM

  volume/ion in A,a.u.               =    1080.00      7288.20
  Fermi-wavevector in a.u.,A,eV,Ry     =   0.354866  0.670600  1.713381  0.125930
  Thomas-Fermi vector in A             =   1.270241
 
 Write flags
   LWAVE        =      F    write WAVECAR
   LDOWNSAMPLE  =      F    k-point downsampling of WAVECAR
   LCHARG       =      F    write CHGCAR
   LVTOT        =      F    write LOCPOT, total local potential
   LVHAR        =      F    write LOCPOT, Hartree potential only
   LELF         =      F    write electronic localiz. function (ELF)
   LORBIT       =     11    0 simple, 1 ext, 2 COOP (PROOUT), +10 PAW based schemes


 Dipole corrections
   LMONO  =      F    monopole corrections only (constant potential shift)
   LDIPOL =      F    correct potential (dipole corrections)
   IDIPOL =      0    1-x, 2-y, 3-z, 4-all directions 
   EPSILON=  1.0000000 bulk dielectric constant

 Exchange correlation treatment:
   GGA     =    PE    GGA type
   LEXCH   =     8    internal setting for exchange type
   VOSKOWN=      0    Vosko Wilk Nusair interpolation
   LHFCALC =     F    Hartree Fock is set to
   LHFONE  =     F    Hartree Fock one center treatment
   AEXX    =    0.0000 exact exchange contribution

 Linear response parameters
   LEPSILON=     F    determine dielectric tensor
   LRPA    =     F    only Hartree local field effects (RPA)
   LNABLA  =     F    use nabla operator in PAW spheres
   LVEL    =     F    velocity operator in full k-point grid
   LINTERFAST=   F  fast interpolation
   KINTER  =     0    interpolate to denser k-point grid
   CSHIFT  =0.1000    complex shift for real part using Kramers Kronig
   OMEGAMAX=  -1.0    maximum frequency
   DEG_THRESHOLD= 0.2000000E-02 threshold for treating states as degnerate
   RTIME   =   -0.100 relaxation time in fs
  (WPLASMAI=    0.000 imaginary part of plasma frequency in eV, 0.658/RTIME)
   DFIELD  = 0.0000000 0.0000000 0.0000000 field for delta impulse in time
 
 Orbital magnetization related:
   ORBITALMAG=     F  switch on orbital magnetization
   LCHIMAG   =     F  perturbation theory with respect to B field
   DQ        =  0.001000  dq finite difference perturbation B field
   LLRAUG    =     F  two centre corrections for induced B field



--------------------------------------------------------------------------------------------------------


 conjugate gradient relaxation of ions
 charge density and potential will be updated during run
 spin polarized calculation
 Variant of blocked Davidson
 Davidson routine will perform the subspace rotation
 perform sub-space diagonalisation
    after iterative eigenvector-optimisation
 modified Broyden-mixing scheme, WC =      100.0
 initial mixing is a Kerker type mixing with AMIX =  0.4000 and BMIX =      1.0000
 Hartree-type preconditioning will be used
 using additional bands           66
 reciprocal scheme for non local part
 use partial core corrections
 calculate Harris-corrections to forces 
   (improved forces if not selfconsistent)
 use gradient corrections 
 use of overlap-Matrix (Vanderbilt PP)
 Gauss-broadening in eV      SIGMA  =   0.00


--------------------------------------------------------------------------------------------------------


  energy-cutoff  :      295.45
  volume of cell :    27000.00
      direct lattice vectors                 reciprocal lattice vectors
    30.000000000  0.000000000  0.000000000     0.033333333  0.000000000  0.000000000
     0.000000000 30.000000000  0.000000000     0.000000000  0.033333333  0.000000000
     0.000000000  0.000000000 30.000000000     0.000000000  0.000000000  0.033333333

  length of vectors
    30.000000000 30.000000000 30.000000000     0.033333333  0.033333333  0.033333333


 
 k-points in units of 2pi/SCALE and weight: Gamma-point only                        
   0.00000000  0.00000000  0.00000000       1.000
 
 k-points in reciprocal lattice and weights: Gamma-point only                        
   0.00000000  0.00000000  0.00000000       1.000
 
 position of ions in fractional coordinates (direct lattice) 
   0.32901685  0.31806758  0.19942800
   0.25917114  0.28282505  0.18363605
   0.32678542  0.23359456  0.18792767
   0.19741622  0.28496205  0.23859259
   0.25319197  0.22343100  0.23563397
   0.38954127  0.19326365  0.22187127
   0.31929522  0.35002998  0.27306189
   0.25366596  0.34972194  0.22623268
   0.17959419  0.36060113  0.26217592
   0.39214813  0.27193719  0.23123285
   0.31748311  0.17617849  0.25059333
   0.32078050  0.26415362  0.26163874
   0.24036200  0.15685635  0.27855242
   0.25617879  0.29631706  0.29220854
   0.37541207  0.30338127  0.30870752
   0.24634940  0.37680380  0.30656392
   0.20740594  0.22935852  0.30281265
   0.37380854  0.21790633  0.29877630
   0.18221612  0.30489530  0.32362681
   0.28554518  0.21152791  0.31593548
   0.17181177  0.38315428  0.33888840
   0.30507817  0.33357698  0.35047507
   0.33178055  0.25905557  0.35809465
   0.22838801  0.34406649  0.37960901
   0.25061967  0.26738010  0.36677047
 
 position of ions in cartesian coordinates  (Angst):
   9.87050554  9.54202737  5.98283989
   7.77513432  8.48475159  5.50908143
   9.80356250  7.00783667  5.63783008
   5.92248658  8.54886147  7.15777766
   7.59575899  6.70292988  7.06901900
  11.68623817  5.79790950  6.65613816
   9.57885672 10.50089940  8.19185666
   7.60997868 10.49165830  6.78698050
   5.38782579 10.81803392  7.86527756
  11.76444386  8.15811574  6.93698549
   9.52449320  5.28535484  7.51779998
   9.62341494  7.92460856  7.84916234
   7.21086010  4.70569048  8.35657264
   7.68536382  8.88951168  8.76625606
  11.26236216  9.10143798  9.26122567
   7.39048190 11.30411407  9.19691759
   6.22217830  6.88075563  9.08437941
  11.21425611  6.53718982  8.96328902
   5.46648367  9.14685906  9.70880416
   8.56635549  6.34583722  9.47806430
   5.15435316 11.49462847 10.16665204
   9.15234498 10.00730948 10.51425225
   9.95341653  7.77166716 10.74283954
   6.85164031 10.32199459 11.38827020
   7.51859001  8.02140295 11.00311421
 


--------------------------------------------------------------------------------------------------------


 use parallel FFT for orbitals z direction half grid
 k-point  1 :   0.0000 0.0000 0.0000  plane waves:  155509

 maximum and minimum number of plane-waves per node :      9726     9711

 maximum number of plane-waves:    155509
 maximum index in each direction: 
   IXMAX=   42   IYMAX=   42   IZMAX=   42
   IXMIN=  -42   IYMIN=  -42   IZMIN=    0


 parallel 3D FFT for wavefunctions:
    minimum data exchange during FFTs selected (reduces bandwidth)
 parallel 3D FFT for charge:
    minimum data exchange during FFTs selected (reduces bandwidth)


 total amount of memory used by VASP MPI-rank0    91084. kBytes
=======================================================================

   base      :      30000. kBytes
   nonl-proj :       5283. kBytes
   fftplans  :      11297. kBytes
   grid      :      28594. kBytes
   one-center:         31. kBytes
   wavefun   :      15879. kBytes
 
     INWAV:  cpu time    0.0003: real time    0.0005
 Broyden mixing: mesh for mixing (old mesh)
   NGX = 85   NGY = 85   NGZ = 85
  (NGX  =252   NGY  =252   NGZ  =252)
  gives a total of 614125 points

 initial charge density was supplied:
 charge density of overlapping atoms calculated
 number of electron     275.0000000 magnetization      75.0000000
 keeping initial charge density in first step


--------------------------------------------------------------------------------------------------------


 Maximum index for augmentation-charges          199 (set IRDMAX)


--------------------------------------------------------------------------------------------------------


 First call to EWALD:  gamma=   0.059
 Maximum number of real-space cells 3x 3x 3
 Maximum number of reciprocal cells 3x 3x 3

    FEWALD:  cpu time    0.0133: real time    0.0234


--------------------------------------- Iteration      1(   1)  ---------------------------------------


    POTLOK:  cpu time    1.3632: real time    1.3982
    SETDIJ:  cpu time    0.0745: real time    0.0862
     EDDAV:  cpu time   14.1252: real time   14.2007
       DOS:  cpu time    0.0133: real time    0.0362
    --------------------------------------------
      LOOP:  cpu time   15.5764: real time   15.7215

 eigenvalue-minimisations  :   848
 total energy-change (2. order) : 0.1804682E+04  (-0.4164317E+04)
 number of electron     275.0000000 magnetization      75.0000000
 augmentation part      275.0000000 magnetization      75.0000000

 Free energy of the ion-electron system (eV)
  ---------------------------------------------------
  alpha Z        PSCENC =        16.92888975
  Ewald energy   TEWEN  =     86282.17829658
  -Hartree energ DENC   =   -117889.25291632
  -exchange      EXHF   =         0.00000000
  -V(xc)+E(xc)   XCENC  =      1151.76112387
  PAW double counting   =     30680.42949507   -33322.39692142
  entropy T*S    EENTRO =         0.00000000
  eigenvalues    EBANDS =       111.64462185
  atomic energy  EATOM  =     34773.38961645
  Solvation  Ediel_sol  =         0.00000000
  ---------------------------------------------------
  free energy    TOTEN  =      1804.68220582 eV

  energy without entropy =     1804.68220582  energy(sigma->0) =     1804.68220582


--------------------------------------------------------------------------------------------------------




--------------------------------------- Iteration      1(   2)  ---------------------------------------


     EDDAV:  cpu time   16.1550: real time   16.1706
       DOS:  cpu time    0.0008: real time    0.0008
    --------------------------------------------
      LOOP:  cpu time   16.1557: real time   16.1713

 eigenvalue-minimisations  :  1016
 total energy-change (2. order) :-0.1355785E+04  (-0.1152013E+04)
 number of electron     275.0000000 magnetization      75.0000000
 augmentation part      275.0000000 magnetization      75.0000000

 Free energy of the ion-electron system (eV)
  ---------------------------------------------------
  alpha Z        PSCENC =        16.92888975
  Ewald energy   TEWEN  =     86282.17829658
  -Hartree energ DENC   =   -117889.25291632
  -exchange      EXHF   =         0.00000000
  -V(xc)+E(xc)   XCENC  =      1151.76112387
  PAW double counting   =     30680.42949507   -33322.39692142
  entropy T*S    EENTRO =         0.00000000
  eigenvalues    EBANDS =     -1244.14014951
  atomic energy  EATOM  =     34773.38961645
  Solvation  Ediel_sol  =         0.00000000
  ---------------------------------------------------
  free energy    TOTEN  =       448.89743446 eV

  energy without entropy =      448.89743446  energy(sigma->0) =      448.89743446


--------------------------------------------------------------------------------------------------------




--------------------------------------- Iteration      1(   3)  ---------------------------------------


     EDDAV:  cpu time   16.5529: real time   16.5686
       DOS:  cpu time    0.0008: real time    0.0008
    --------------------------------------------
      LOOP:  cpu time   16.5539: real time   16.5696

 eigenvalue-minimisations  :  1048
 total energy-change (2. order) :-0.4408644E+03  (-0.4155415E+03)
 number of electron     275.0000000 magnetization      75.0000000
 augmentation part      275.0000000 magnetization      75.0000000

 Free energy of the ion-electron system (eV)
  ---------------------------------------------------
  alpha Z        PSCENC =        16.92888975
  Ewald energy   TEWEN  =     86282.17829658
  -Hartree energ DENC   =   -117889.25291632
  -exchange      EXHF   =         0.00000000
  -V(xc)+E(xc)   XCENC  =      1151.76112387
  PAW double counting   =     30680.42949507   -33322.39692142
  entropy T*S    EENTRO =         0.00000000
  eigenvalues    EBANDS =     -1685.00459054
  atomic energy  EATOM  =     34773.38961645
  Solvation  Ediel_sol  =         0.00000000
  ---------------------------------------------------
  free energy    TOTEN  =         8.03299343 eV

  energy without entropy =        8.03299343  energy(sigma->0) =        8.03299343


--------------------------------------------------------------------------------------------------------




--------------------------------------- Iteration      1(   4)  ---------------------------------------


     EDDAV:  cpu time   16.7543: real time   16.7673
       DOS:  cpu time    0.0008: real time    0.0008
    --------------------------------------------
      LOOP:  cpu time   16.7549: real time   16.7680

 eigenvalue-minimisations  :  1064
 total energy-change (2. order) :-0.5390026E+02  (-0.4884011E+02)
 number of electron     275.0000000 magnetization      75.0000000
 augmentation part      275.0000000 magnetization      75.0000000

 Free energy of the ion-electron system (eV)
  ---------------------------------------------------
  alpha Z        PSCENC =        16.92888975
  Ewald energy   TEWEN  =     86282.17829658
  -Hartree energ DENC   =   -117889.25291632
  -exchange      EXHF   =         0.00000000
  -V(xc)+E(xc)   XCENC  =      1151.76112387
  PAW double counting   =     30680.42949507   -33322.39692142
  entropy T*S    EENTRO =         0.00000000
  eigenvalues    EBANDS =     -1738.90484963
  atomic energy  EATOM  =     34773.38961645
  Solvation  Ediel_sol  =         0.00000000
  ---------------------------------------------------
  free energy    TOTEN  =       -45.86726566 eV

  energy without entropy =      -45.86726566  energy(sigma->0) =      -45.86726566


--------------------------------------------------------------------------------------------------------




--------------------------------------- Iteration      1(   5)  ---------------------------------------


     EDDAV:  cpu time   17.2407: real time   17.2602
       DOS:  cpu time    0.0010: real time    0.0010
    CHARGE:  cpu time    0.4921: real time    0.5150
    MIXING:  cpu time    0.0505: real time    0.0775
    --------------------------------------------
      LOOP:  cpu time   17.7844: real time   17.8537

 eigenvalue-minimisations  :  1104
 total energy-change (2. order) :-0.2411956E+01  (-0.2350360E+01)
 number of electron     275.0000286 magnetization      71.1003926
 augmentation part      161.7738633 magnetization      67.1760176

 Broyden mixing:
  rms(total) = 0.88090E+01    rms(broyden)= 0.88074E+01
  rms(prec ) = 0.88684E+01
  weight for this iteration     100.00

 Free energy of the ion-electron system (eV)
  ---------------------------------------------------
  alpha Z        PSCENC =        16.92888975
  Ewald energy   TEWEN  =     86282.17829658
  -Hartree energ DENC   =   -117889.25291632
  -exchange      EXHF   =         0.00000000
  -V(xc)+E(xc)   XCENC  =      1151.76112387
  PAW double counting   =     30680.42949507   -33322.39692142
  entropy T*S    EENTRO =         0.00000000
  eigenvalues    EBANDS =     -1741.31680543
  atomic energy  EATOM  =     34773.38961645
  Solvation  Ediel_sol  =         0.00000000
  ---------------------------------------------------
  free energy    TOTEN  =       -48.27922146 eV

  energy without entropy =      -48.27922146  energy(sigma->0) =      -48.27922146


--------------------------------------------------------------------------------------------------------




--------------------------------------- Iteration      1(   6)  ---------------------------------------


    POTLOK:  cpu time    1.3171: real time    1.3490
    SETDIJ:  cpu time    0.0300: real time    0.0298
     EDDAV:  cpu time   14.4709: real time   14.4549
       DOS:  cpu time    0.0015: real time    0.0015
    CHARGE:  cpu time    0.4747: real time    0.4741
    MIXING:  cpu time    0.0353: real time    0.0396
    --------------------------------------------
      LOOP:  cpu time   16.3295: real time   16.3491

 eigenvalue-minimisations  :   880
 total energy-change (2. order) : 0.1701498E+03  (-0.1093690E+03)
 number of electron     275.0000335 magnetization      68.1524955
 augmentation part      189.4218270 magnetization      46.1209784

 Broyden mixing:
  rms(total) = 0.44036E+01    rms(broyden)= 0.44011E+01
  rms(prec ) = 0.44971E+01
  weight for this iteration     100.00

 eigenvalues of (default mixing * dielectric matrix)
  average eigenvalue GAMMA=   0.9423
  0.9423

 Free energy of the ion-electron system (eV)
  ---------------------------------------------------
  alpha Z        PSCENC =        16.92888975
  Ewald energy   TEWEN  =     86282.17829658
  -Hartree energ DENC   =   -117138.48457579
  -exchange      EXHF   =         0.00000000
  -V(xc)+E(xc)   XCENC  =      1243.26174480
  PAW double counting   =     30706.36243743   -33212.44693033
  entropy T*S    EENTRO =         0.00000000
  eigenvalues    EBANDS =     -2549.31889492
  atomic energy  EATOM  =     34773.38961645
  Solvation  Ediel_sol  =         0.00000000
  ---------------------------------------------------
  free energy    TOTEN  =       121.87058398 eV

  energy without entropy =      121.87058398  energy(sigma->0) =      121.87058398


--------------------------------------------------------------------------------------------------------




--------------------------------------- Iteration      1(   7)  ---------------------------------------


    POTLOK:  cpu time    1.3545: real time    1.3650
    SETDIJ:  cpu time    0.0299: real time    0.0298
     EDDAV:  cpu time   15.6857: real time   15.6700
       DOS:  cpu time    0.0016: real time    0.0016
    CHARGE:  cpu time    0.4757: real time    0.4751
    MIXING:  cpu time    0.0327: real time    0.0327
    --------------------------------------------
      LOOP:  cpu time   17.5801: real time   17.5741

 eigenvalue-minimisations  :   980
 total energy-change (2. order) : 0.3702087E+01  (-0.4322997E+02)
 number of electron     275.0000316 magnetization      64.5148899
 augmentation part      178.5390813 magnetization      41.9391601

 Broyden mixing:
  rms(total) = 0.21042E+01    rms(broyden)= 0.21032E+01
  rms(prec ) = 0.21248E+01
  weight for this iteration     100.00

 eigenvalues of (default mixing * dielectric matrix)
  average eigenvalue GAMMA=   0.8760
  1.0556  0.6965

 Free energy of the ion-electron system (eV)
  ---------------------------------------------------
  alpha Z        PSCENC =        16.92888975
  Ewald energy   TEWEN  =     86282.17829658
  -Hartree energ DENC   =   -117740.06797589
  -exchange      EXHF   =         0.00000000
  -V(xc)+E(xc)   XCENC  =      1260.29725398
  PAW double counting   =     31647.34183510   -34368.90501003
  entropy T*S    EENTRO =         0.00000000
  eigenvalues    EBANDS =     -1745.59023473
  atomic energy  EATOM  =     34773.38961645
  Solvation  Ediel_sol  =         0.00000000
  ---------------------------------------------------
  free energy    TOTEN  =       125.57267121 eV

  energy without entropy =      125.57267121  energy(sigma->0) =      125.57267121


--------------------------------------------------------------------------------------------------------




--------------------------------------- Iteration      1(   8)  ---------------------------------------


    POTLOK:  cpu time    1.3547: real time    1.3614
    SETDIJ:  cpu time    0.0298: real time    0.0298
     EDDAV:  cpu time   17.1382: real time   17.1190
       DOS:  cpu time    0.0010: real time    0.0010
    CHARGE:  cpu time    0.4751: real time    0.4746
    MIXING:  cpu time    0.0351: real time    0.0351
    --------------------------------------------
      LOOP:  cpu time   19.0340: real time   19.0209

 eigenvalue-minimisations  :  1096
 total energy-change (2. order) : 0.1042320E+02  (-0.6672917E+01)
 number of electron     275.0000303 magnetization      61.9865110
 augmentation part      175.7977244 magnetization      38.6523109

 Broyden mixing:
  rms(total) = 0.19562E+01    rms(broyden)= 0.19559E+01
  rms(prec ) = 0.19905E+01
  weight for this iteration     100.00

 eigenvalues of (default mixing * dielectric matrix)
  average eigenvalue GAMMA=   0.8097
  1.1841  0.6944  0.5505

 Free energy of the ion-electron system (eV)
  ---------------------------------------------------
  alpha Z        PSCENC =        16.92888975
  Ewald energy   TEWEN  =     86282.17829658
  -Hartree energ DENC   =   -117887.00056628
  -exchange      EXHF   =         0.00000000
  -V(xc)+E(xc)   XCENC  =      1271.10385623
  PAW double counting   =     32219.34093432   -34960.93306919
  entropy T*S    EENTRO =         0.00000000
  eigenvalues    EBANDS =     -1579.01208166
  atomic energy  EATOM  =     34773.38961645
  Solvation  Ediel_sol  =         0.00000000
  ---------------------------------------------------
  free energy    TOTEN  =       135.99587620 eV

  energy without entropy =      135.99587620  energy(sigma->0) =      135.99587620


--------------------------------------------------------------------------------------------------------




--------------------------------------- Iteration      1(   9)  ---------------------------------------


    POTLOK:  cpu time    1.3250: real time    1.3634
    SETDIJ:  cpu time    0.0298: real time    0.0298
     EDDAV:  cpu time   16.3585: real time   16.3413
       DOS:  cpu time    0.0010: real time    0.0010
    CHARGE:  cpu time    0.4756: real time    0.4750
    MIXING:  cpu time    0.0375: real time    0.0375
    --------------------------------------------
      LOOP:  cpu time   18.2274: real time   18.2480

 eigenvalue-minimisations  :  1032
 total energy-change (2. order) :-0.8978201E+01  (-0.2375795E+01)
 number of electron     275.0000320 magnetization      56.9374639
 augmentation part      176.3143938 magnetization      33.9614455

 Broyden mixing:
  rms(total) = 0.13746E+01    rms(broyden)= 0.13743E+01
  rms(prec ) = 0.13872E+01
  weight for this iteration     100.00

 eigenvalues of (default mixing * dielectric matrix)
  average eigenvalue GAMMA=   0.8849
  1.3240  1.0151  0.7777  0.4228

 Free energy of the ion-electron system (eV)
  ---------------------------------------------------
  alpha Z        PSCENC =        16.92888975
  Ewald energy   TEWEN  =     86282.17829658
  -Hartree energ DENC   =   -117865.16744937
  -exchange      EXHF   =         0.00000000
  -V(xc)+E(xc)   XCENC  =      1262.21028965
  PAW double counting   =     32382.80738118   -35112.88955914
  entropy T*S    EENTRO =         0.00000000
  eigenvalues    EBANDS =     -1612.43978976
  atomic energy  EATOM  =     34773.38961645
  Solvation  Ediel_sol  =         0.00000000
  ---------------------------------------------------
  free energy    TOTEN  =       127.01767533 eV

  energy without entropy =      127.01767533  energy(sigma->0) =      127.01767533


--------------------------------------------------------------------------------------------------------




--------------------------------------- Iteration      1(  10)  ---------------------------------------


    POTLOK:  cpu time    1.3604: real time    1.3657
    SETDIJ:  cpu time    0.0297: real time    0.0297
     EDDAV:  cpu time   20.2026: real time   20.1806
       DOS:  cpu time    0.0017: real time    0.0017
    CHARGE:  cpu time    0.4759: real time    0.4755
    MIXING:  cpu time    0.0401: real time    0.0401
    --------------------------------------------
      LOOP:  cpu time   22.1105: real time   22.0933

 eigenvalue-minimisations  :  1344
 total energy-change (2. order) :-0.4037844E+02  (-0.2090458E+01)
 number of electron     275.0000301 magnetization      51.7986830
 augmentation part      177.2477362 magnetization      30.3625788

 Broyden mixing:
  rms(total) = 0.10930E+01    rms(broyden)= 0.10926E+01
  rms(prec ) = 0.11057E+01
  weight for this iteration     100.00

 eigenvalues of (default mixing * dielectric matrix)
  average eigenvalue GAMMA=   1.0282
  1.9673  1.4937  0.6371  0.6371  0.4056

 Free energy of the ion-electron system (eV)
  ---------------------------------------------------
  alpha Z        PSCENC =        16.92888975
  Ewald energy   TEWEN  =     86282.17829658
  -Hartree energ DENC   =   -117837.82453246
  -exchange      EXHF   =         0.00000000
  -V(xc)+E(xc)   XCENC  =      1228.33263115
  PAW double counting   =     32518.17499699   -35220.70796935
  entropy T*S    EENTRO =         0.00000000
  eigenvalues    EBANDS =     -1673.83269259
  atomic energy  EATOM  =     34773.38961645
  Solvation  Ediel_sol  =         0.00000000
  ---------------------------------------------------
  free energy    TOTEN  =        86.63923652 eV

  energy without entropy =       86.63923652  energy(sigma->0) =       86.63923652


--------------------------------------------------------------------------------------------------------




--------------------------------------- Iteration      1(  11)  ---------------------------------------


    POTLOK:  cpu time    1.3153: real time    1.3499
    SETDIJ:  cpu time    0.0295: real time    0.0295
     EDDAV:  cpu time   17.6331: real time   17.6145
       DOS:  cpu time    0.0010: real time    0.0010
    CHARGE:  cpu time    0.4702: real time    0.4699
    MIXING:  cpu time    0.0426: real time    0.0426
    --------------------------------------------
      LOOP:  cpu time   19.4918: real time   19.5075

 eigenvalue-minimisations  :  1136
 total energy-change (2. order) :-0.3552320E+02  (-0.2465006E+01)
 number of electron     275.0000321 magnetization      48.3835160
 augmentation part      178.0729847 magnetization      31.8658616

 Broyden mixing:
  rms(total) = 0.91392E+00    rms(broyden)= 0.91315E+00
  rms(prec ) = 0.92396E+00
  weight for this iteration     100.00

 eigenvalues of (default mixing * dielectric matrix)
  average eigenvalue GAMMA=   0.9998
  2.5478  1.3268  0.6226  0.6226  0.5030  0.3758

 Free energy of the ion-electron system (eV)
  ---------------------------------------------------
  alpha Z        PSCENC =        16.92888975
  Ewald energy   TEWEN  =     86282.17829658
  -Hartree energ DENC   =   -117814.33555223
  -exchange      EXHF   =         0.00000000
  -V(xc)+E(xc)   XCENC  =      1200.25976301
  PAW double counting   =     32563.07154363   -35245.22361779
  entropy T*S    EENTRO =         0.00000000
  eigenvalues    EBANDS =     -1725.15290497
  atomic energy  EATOM  =     34773.38961645
  Solvation  Ediel_sol  =         0.00000000
  ---------------------------------------------------
  free energy    TOTEN  =        51.11603443 eV

  energy without entropy =       51.11603443  energy(sigma->0) =       51.11603443


--------------------------------------------------------------------------------------------------------




--------------------------------------- Iteration      1(  12)  ---------------------------------------


    POTLOK:  cpu time    1.3438: real time    1.3430
    SETDIJ:  cpu time    0.0295: real time    0.0295
     EDDAV:  cpu time   16.4840: real time   16.4660
       DOS:  cpu time    0.0011: real time    0.0011
    CHARGE:  cpu time    0.4706: real time    0.4700
    MIXING:  cpu time    0.0455: real time    0.0455
    --------------------------------------------
      LOOP:  cpu time   18.3745: real time   18.3550

 eigenvalue-minimisations  :  1040
 total energy-change (2. order) :-0.1057040E+02  (-0.8899757E+00)
 number of electron     275.0000315 magnetization      42.2793392
 augmentation part      177.5390057 magnetization      26.6897080

 Broyden mixing:
  rms(total) = 0.71145E+00    rms(broyden)= 0.71134E+00
  rms(prec ) = 0.71740E+00
  weight for this iteration     100.00

 eigenvalues of (default mixing * dielectric matrix)
  average eigenvalue GAMMA=   1.1301
  3.2254  1.5004  0.8239  0.8239  0.6622  0.4172  0.4577

 Free energy of the ion-electron system (eV)
  ---------------------------------------------------
  alpha Z        PSCENC =        16.92888975
  Ewald energy   TEWEN  =     86282.17829658
  -Hartree energ DENC   =   -117862.74952892
  -exchange      EXHF   =         0.00000000
  -V(xc)+E(xc)   XCENC  =      1193.80800071
  PAW double counting   =     32639.93704214   -35326.04365297
  entropy T*S    EENTRO =         0.00000000
  eigenvalues    EBANDS =     -1676.90303010
  atomic energy  EATOM  =     34773.38961645
  Solvation  Ediel_sol  =         0.00000000
  ---------------------------------------------------
  free energy    TOTEN  =        40.54563363 eV

  energy without entropy =       40.54563363  energy(sigma->0) =       40.54563363


--------------------------------------------------------------------------------------------------------




--------------------------------------- Iteration      1(  13)  ---------------------------------------


    POTLOK:  cpu time    1.3079: real time    1.3309
    SETDIJ:  cpu time    0.0298: real time    0.0298
     EDDAV:  cpu time   16.3047: real time   16.2879
       DOS:  cpu time    0.0012: real time    0.0012
    CHARGE:  cpu time    0.4758: real time    0.4751
    MIXING:  cpu time    0.0486: real time    0.0486
    --------------------------------------------
      LOOP:  cpu time   18.1680: real time   18.1735

 eigenvalue-minimisations  :  1024
 total energy-change (2. order) :-0.3116037E+02  (-0.2226188E+01)
 number of electron     275.0000312 magnetization      34.3311811
 augmentation part      176.2931099 magnetization      21.7934002

 Broyden mixing:
  rms(total) = 0.62340E+00    rms(broyden)= 0.62282E+00
  rms(prec ) = 0.63093E+00
  weight for this iteration     100.00

 eigenvalues of (default mixing * dielectric matrix)
  average eigenvalue GAMMA=   1.2566
  4.5368  1.7093  1.0623  0.7212  0.7212  0.4607  0.4607  0.3809

 Free energy of the ion-electron system (eV)
  ---------------------------------------------------
  alpha Z        PSCENC =        16.92888975
  Ewald energy   TEWEN  =     86282.17829658
  -Hartree energ DENC   =   -117914.03639279
  -exchange      EXHF   =         0.00000000
  -V(xc)+E(xc)   XCENC  =      1171.69823283
  PAW double counting   =     32647.62810861   -35338.57155097
  entropy T*S    EENTRO =         0.00000000
  eigenvalues    EBANDS =     -1629.82993984
  atomic energy  EATOM  =     34773.38961645
  Solvation  Ediel_sol  =         0.00000000
  ---------------------------------------------------
  free energy    TOTEN  =         9.38526062 eV

  energy without entropy =        9.38526062  energy(sigma->0) =        9.38526062


--------------------------------------------------------------------------------------------------------




--------------------------------------- Iteration      1(  14)  ---------------------------------------


    POTLOK:  cpu time    1.3377: real time    1.3440
    SETDIJ:  cpu time    0.0296: real time    0.0295
     EDDAV:  cpu time   17.0935: real time   17.0751
       DOS:  cpu time    0.0012: real time    0.0012
    CHARGE:  cpu time    0.4709: real time    0.4704
    MIXING:  cpu time    0.0516: real time    0.0515
    --------------------------------------------
      LOOP:  cpu time   18.9843: real time   18.9718

 eigenvalue-minimisations  :  1092
 total energy-change (2. order) :-0.3319486E+02  (-0.2881854E+01)
 number of electron     275.0000306 magnetization      30.4784872
 augmentation part      175.4526263 magnetization      22.8093790

 Broyden mixing:
  rms(total) = 0.55827E+00    rms(broyden)= 0.55735E+00
  rms(prec ) = 0.56764E+00
  weight for this iteration     100.00

 eigenvalues of (default mixing * dielectric matrix)
  average eigenvalue GAMMA=   1.2731
  5.3167  1.7467  1.2453  0.6798  0.6798  0.5060  0.5060  0.3887  0.3887

 Free energy of the ion-electron system (eV)
  ---------------------------------------------------
  alpha Z        PSCENC =        16.92888975
  Ewald energy   TEWEN  =     86282.17829658
  -Hartree energ DENC   =   -117950.29192319
  -exchange      EXHF   =         0.00000000
  -V(xc)+E(xc)   XCENC  =      1147.16518422
  PAW double counting   =     32614.93837838   -35307.86002297
  entropy T*S    EENTRO =         0.00000000
  eigenvalues    EBANDS =     -1600.25801927
  atomic energy  EATOM  =     34773.38961645
  Solvation  Ediel_sol  =         0.00000000
  ---------------------------------------------------
  free energy    TOTEN  =       -23.80960006 eV

  energy without entropy =      -23.80960006  energy(sigma->0) =      -23.80960006


--------------------------------------------------------------------------------------------------------




--------------------------------------- Iteration      1(  15)  ---------------------------------------


    POTLOK:  cpu time    1.3374: real time    1.3441
    SETDIJ:  cpu time    0.0296: real time    0.0294
     EDDAV:  cpu time   16.7632: real time   16.7451
       DOS:  cpu time    0.0011: real time    0.0011
    CHARGE:  cpu time    0.4803: real time    0.4800
    MIXING:  cpu time    0.0553: real time    0.0553
    --------------------------------------------
      LOOP:  cpu time   18.6670: real time   18.6550

 eigenvalue-minimisations  :  1064
 total energy-change (2. order) :-0.1070597E+02  (-0.1060499E+01)
 number of electron     275.0000303 magnetization      27.1335651
 augmentation part      175.0948506 magnetization      20.5249316

 Broyden mixing:
  rms(total) = 0.48269E+00    rms(broyden)= 0.48253E+00
  rms(prec ) = 0.49468E+00
  weight for this iteration     100.00

 eigenvalues of (default mixing * dielectric matrix)
  average eigenvalue GAMMA=   1.3250
  6.0339  2.1980  1.0140  0.7327  0.7327  0.6310  0.6310  0.4628  0.4070  0.4070

 Free energy of the ion-electron system (eV)
  ---------------------------------------------------
  alpha Z        PSCENC =        16.92888975
  Ewald energy   TEWEN  =     86282.17829658
  -Hartree energ DENC   =   -117953.05791347
  -exchange      EXHF   =         0.00000000
  -V(xc)+E(xc)   XCENC  =      1139.69854479
  PAW double counting   =     32607.20187133   -35297.74904745
  entropy T*S    EENTRO =         0.00000000
  eigenvalues    EBANDS =     -1603.10583024
  atomic energy  EATOM  =     34773.38961645
  Solvation  Ediel_sol  =         0.00000000
  ---------------------------------------------------
  free energy    TOTEN  =       -34.51557226 eV

  energy without entropy =      -34.51557226  energy(sigma->0) =      -34.51557226


--------------------------------------------------------------------------------------------------------




--------------------------------------- Iteration      1(  16)  ---------------------------------------


    POTLOK:  cpu time    1.3638: real time    1.3717
    SETDIJ:  cpu time    0.0369: real time    0.0368
     EDDAV:  cpu time   18.1545: real time   18.1351
       DOS:  cpu time    0.0014: real time    0.0014
    CHARGE:  cpu time    0.4767: real time    0.4762
    MIXING:  cpu time    0.0580: real time    0.0580
    --------------------------------------------
      LOOP:  cpu time   20.0913: real time   20.0792

 eigenvalue-minimisations  :  1176
 total energy-change (2. order) :-0.1131870E+02  (-0.8592645E+00)
 number of electron     275.0000306 magnetization      24.5043103
 augmentation part      175.9036215 magnetization      22.1601333

 Broyden mixing:
  rms(total) = 0.39591E+00    rms(broyden)= 0.39469E+00
  rms(prec ) = 0.40381E+00
  weight for this iteration     100.00

 eigenvalues of (default mixing * dielectric matrix)
  average eigenvalue GAMMA=   1.2983
  6.6218  2.1969  1.0641  0.7615  0.7615  0.6575  0.6575  0.4525  0.4281  0.3895
  0.2906

 Free energy of the ion-electron system (eV)
  ---------------------------------------------------
  alpha Z        PSCENC =        16.92888975
  Ewald energy   TEWEN  =     86282.17829658
  -Hartree energ DENC   =   -117907.08847713
  -exchange      EXHF   =         0.00000000
  -V(xc)+E(xc)   XCENC  =      1129.65781592
  PAW double counting   =     32491.38794692   -35172.30202517
  entropy T*S    EENTRO =         0.00000000
  eigenvalues    EBANDS =     -1659.98634036
  atomic energy  EATOM  =     34773.38961645
  Solvation  Ediel_sol  =         0.00000000
  ---------------------------------------------------
  free energy    TOTEN  =       -45.83427704 eV

  energy without entropy =      -45.83427704  energy(sigma->0) =      -45.83427704


--------------------------------------------------------------------------------------------------------




--------------------------------------- Iteration      1(  17)  ---------------------------------------


    POTLOK:  cpu time    1.3442: real time    1.3435
    SETDIJ:  cpu time    0.0296: real time    0.0295
     EDDAV:  cpu time   18.0677: real time   18.0516
       DOS:  cpu time    0.0229: real time    0.0229
    CHARGE:  cpu time    0.4935: real time    0.4939
    MIXING:  cpu time    0.0850: real time    0.0879
    --------------------------------------------
      LOOP:  cpu time   20.0437: real time   20.0300

 eigenvalue-minimisations  :  1160
 total energy-change (2. order) :-0.3749092E+01  (-0.2370038E+00)
 number of electron     275.0000305 magnetization      21.0186624
 augmentation part      176.1088668 magnetization      19.2188856

 Broyden mixing:
  rms(total) = 0.29445E+00    rms(broyden)= 0.29434E+00
  rms(prec ) = 0.30059E+00
  weight for this iteration     100.00

 eigenvalues of (default mixing * dielectric matrix)
  average eigenvalue GAMMA=   1.3946
  7.6764  2.2171  1.1595  1.0008  1.0008  0.7701  0.5758  0.5758  0.6021  0.4165
  0.3701  0.3701

 Free energy of the ion-electron system (eV)
  ---------------------------------------------------
  alpha Z        PSCENC =        16.92888975
  Ewald energy   TEWEN  =     86282.17829658
  -Hartree energ DENC   =   -117898.91274146
  -exchange      EXHF   =         0.00000000
  -V(xc)+E(xc)   XCENC  =      1126.60728167
  PAW double counting   =     32467.30129885   -35146.02724072
  entropy T*S    EENTRO =         0.00000000
  eigenvalues    EBANDS =     -1671.04877019
  atomic energy  EATOM  =     34773.38961645
  Solvation  Ediel_sol  =         0.00000000
  ---------------------------------------------------
  free energy    TOTEN  =       -49.58336909 eV

  energy without entropy =      -49.58336909  energy(sigma->0) =      -49.58336909


--------------------------------------------------------------------------------------------------------




--------------------------------------- Iteration      1(  18)  ---------------------------------------


    POTLOK:  cpu time    1.3474: real time    1.3706
    SETDIJ:  cpu time    0.0482: real time    0.0482
     EDDAV:  cpu time   17.9585: real time   17.9396
       DOS:  cpu time    0.0011: real time    0.0011
    CHARGE:  cpu time    0.4777: real time    0.4772
    MIXING:  cpu time    0.0652: real time    0.0652
    --------------------------------------------
      LOOP:  cpu time   19.8973: real time   19.9012

 eigenvalue-minimisations  :  1160
 total energy-change (2. order) :-0.5201354E+01  (-0.2304440E+00)
 number of electron     275.0000304 magnetization      17.4092922
 augmentation part      175.9816120 magnetization      16.0518930

 Broyden mixing:
  rms(total) = 0.24151E+00    rms(broyden)= 0.24147E+00
  rms(prec ) = 0.24783E+00
  weight for this iteration     100.00

 eigenvalues of (default mixing * dielectric matrix)
  average eigenvalue GAMMA=   1.4488
  8.6357  2.5003  1.1409  1.1409  0.9286  0.9286  0.6832  0.6832  0.5232  0.5232
  0.4036  0.3713  0.3713

 Free energy of the ion-electron system (eV)
  ---------------------------------------------------
  alpha Z        PSCENC =        16.92888975
  Ewald energy   TEWEN  =     86282.17829658
  -Hartree energ DENC   =   -117892.99429886
  -exchange      EXHF   =         0.00000000
  -V(xc)+E(xc)   XCENC  =      1122.53072400
  PAW double counting   =     32438.41125508   -35119.67758385
  entropy T*S    EENTRO =         0.00000000
  eigenvalues    EBANDS =     -1675.55162243
  atomic energy  EATOM  =     34773.38961645
  Solvation  Ediel_sol  =         0.00000000
  ---------------------------------------------------
  free energy    TOTEN  =       -54.78472330 eV

  energy without entropy =      -54.78472330  energy(sigma->0) =      -54.78472330


--------------------------------------------------------------------------------------------------------




--------------------------------------- Iteration      1(  19)  ---------------------------------------


    POTLOK:  cpu time    1.3397: real time    1.3545
    SETDIJ:  cpu time    0.0296: real time    0.0296
     EDDAV:  cpu time   18.5213: real time   18.5019
       DOS:  cpu time    0.0014: real time    0.0014
    CHARGE:  cpu time    0.4770: real time    0.4765
    MIXING:  cpu time    0.0689: real time    0.0688
    --------------------------------------------
      LOOP:  cpu time   20.4378: real time   20.4327

 eigenvalue-minimisations  :  1200
 total energy-change (2. order) :-0.4920607E+01  (-0.1371195E+00)
 number of electron     275.0000305 magnetization      15.2486326
 augmentation part      176.1038257 magnetization      14.2264193

 Broyden mixing:
  rms(total) = 0.16608E+00    rms(broyden)= 0.16603E+00
  rms(prec ) = 0.16913E+00
  weight for this iteration     100.00

 eigenvalues of (default mixing * dielectric matrix)
  average eigenvalue GAMMA=   1.4790
  9.1490  2.7520  1.3544  1.3544  0.9243  0.9243  0.7557  0.7557  0.5590  0.5590
  0.4440  0.4440  0.3647  0.3647

 Free energy of the ion-electron system (eV)
  ---------------------------------------------------
  alpha Z        PSCENC =        16.92888975
  Ewald energy   TEWEN  =     86282.17829658
  -Hartree energ DENC   =   -117863.49728492
  -exchange      EXHF   =         0.00000000
  -V(xc)+E(xc)   XCENC  =      1117.70109013
  PAW double counting   =     32370.77787134   -35052.08905704
  entropy T*S    EENTRO =         0.00000000
  eigenvalues    EBANDS =     -1705.09475239
  atomic energy  EATOM  =     34773.38961645
  Solvation  Ediel_sol  =         0.00000000
  ---------------------------------------------------
  free energy    TOTEN  =       -59.70533011 eV

  energy without entropy =      -59.70533011  energy(sigma->0) =      -59.70533011


--------------------------------------------------------------------------------------------------------




--------------------------------------- Iteration      1(  20)  ---------------------------------------


    POTLOK:  cpu time    1.3314: real time    1.3367
    SETDIJ:  cpu time    0.0296: real time    0.0296
     EDDAV:  cpu time   16.8467: real time   16.8290
       DOS:  cpu time    0.0011: real time    0.0011
    CHARGE:  cpu time    0.4750: real time    0.4746
    MIXING:  cpu time    0.0727: real time    0.0725
    --------------------------------------------
      LOOP:  cpu time   18.7566: real time   18.7435

 eigenvalue-minimisations  :  1072
 total energy-change (2. order) :-0.2909401E+01  (-0.7094836E-01)
 number of electron     275.0000305 magnetization      13.1368370
 augmentation part      176.3790628 magnetization      12.2148239

 Broyden mixing:
  rms(total) = 0.14518E+00    rms(broyden)= 0.14516E+00
  rms(prec ) = 0.14787E+00
  weight for this iteration     100.00

 eigenvalues of (default mixing * dielectric matrix)
  average eigenvalue GAMMA=   1.5241
  9.6997  3.2221  1.3532  1.3532  1.1116  1.1116  0.8380  0.8380  0.6135  0.6135
  0.5057  0.4547  0.4114  0.3674  0.3674

 Free energy of the ion-electron system (eV)
  ---------------------------------------------------
  alpha Z        PSCENC =        16.92888975
  Ewald energy   TEWEN  =     86282.17829658
  -Hartree energ DENC   =   -117834.30961152
  -exchange      EXHF   =         0.00000000
  -V(xc)+E(xc)   XCENC  =      1114.49019037
  PAW double counting   =     32333.46144655   -35012.93755569
  entropy T*S    EENTRO =         0.00000000
  eigenvalues    EBANDS =     -1735.81600353
  atomic energy  EATOM  =     34773.38961645
  Solvation  Ediel_sol  =         0.00000000
  ---------------------------------------------------
  free energy    TOTEN  =       -62.61473105 eV

  energy without entropy =      -62.61473105  energy(sigma->0) =      -62.61473105


--------------------------------------------------------------------------------------------------------




--------------------------------------- Iteration      1(  21)  ---------------------------------------


    POTLOK:  cpu time    1.3458: real time    1.3450
    SETDIJ:  cpu time    0.0298: real time    0.0298
     EDDAV:  cpu time   16.2157: real time   16.1985
       DOS:  cpu time    0.0013: real time    0.0013
    CHARGE:  cpu time    0.4759: real time    0.4754
    MIXING:  cpu time    0.0769: real time    0.0768
    --------------------------------------------
      LOOP:  cpu time   18.1453: real time   18.1268

 eigenvalue-minimisations  :  1016
 total energy-change (2. order) :-0.1774180E+01  (-0.2231353E-01)
 number of electron     275.0000305 magnetization      11.1704069
 augmentation part      176.3714833 magnetization      10.2249734

 Broyden mixing:
  rms(total) = 0.11337E+00    rms(broyden)= 0.11336E+00
  rms(prec ) = 0.11572E+00
  weight for this iteration     100.00

 eigenvalues of (default mixing * dielectric matrix)
  average eigenvalue GAMMA=   1.5533
 10.2568  3.6168  1.4693  1.4693  1.1605  1.1605  0.8569  0.8569  0.6793  0.6053
  0.6053  0.5330  0.4303  0.4204  0.3663  0.3663

 Free energy of the ion-electron system (eV)
  ---------------------------------------------------
  alpha Z        PSCENC =        16.92888975
  Ewald energy   TEWEN  =     86282.17829658
  -Hartree energ DENC   =   -117820.08897247
  -exchange      EXHF   =         0.00000000
  -V(xc)+E(xc)   XCENC  =      1112.72743946
  PAW double counting   =     32337.00984226   -35017.90284604
  entropy T*S    EENTRO =         0.00000000
  eigenvalues    EBANDS =     -1748.63117737
  atomic energy  EATOM  =     34773.38961645
  Solvation  Ediel_sol  =         0.00000000
  ---------------------------------------------------
  free energy    TOTEN  =       -64.38891139 eV

  energy without entropy =      -64.38891139  energy(sigma->0) =      -64.38891139


--------------------------------------------------------------------------------------------------------




--------------------------------------- Iteration      1(  22)  ---------------------------------------


    POTLOK:  cpu time    1.3075: real time    1.3362
    SETDIJ:  cpu time    0.0296: real time    0.0296
     EDDAV:  cpu time   16.5906: real time   16.5726
       DOS:  cpu time    0.0012: real time    0.0012
    CHARGE:  cpu time    0.4760: real time    0.4755
    MIXING:  cpu time    0.0811: real time    0.0810
    --------------------------------------------
      LOOP:  cpu time   18.4860: real time   18.4962

 eigenvalue-minimisations  :  1044
 total energy-change (2. order) :-0.1350796E+01  (-0.1322793E-01)
 number of electron     275.0000306 magnetization       8.7705535
 augmentation part      176.2908448 magnetization       7.8410402

 Broyden mixing:
  rms(total) = 0.83586E-01    rms(broyden)= 0.83575E-01
  rms(prec ) = 0.85160E-01
  weight for this iteration     100.00

 eigenvalues of (default mixing * dielectric matrix)
  average eigenvalue GAMMA=   1.6066
 10.8342  4.1198  1.9730  1.5760  0.9317  0.9317  1.0252  1.0252  1.0232  0.6007
  0.6007  0.6065  0.4713  0.4295  0.4295  0.3667  0.3667

 Free energy of the ion-electron system (eV)
  ---------------------------------------------------
  alpha Z        PSCENC =        16.92888975
  Ewald energy   TEWEN  =     86282.17829658
  -Hartree energ DENC   =   -117809.68972790
  -exchange      EXHF   =         0.00000000
  -V(xc)+E(xc)   XCENC  =      1111.49988845
  PAW double counting   =     32339.93623235   -35022.64743631
  entropy T*S    EENTRO =         0.00000000
  eigenvalues    EBANDS =     -1757.33546632
  atomic energy  EATOM  =     34773.38961645
  Solvation  Ediel_sol  =         0.00000000
  ---------------------------------------------------
  free energy    TOTEN  =       -65.73970695 eV

  energy without entropy =      -65.73970695  energy(sigma->0) =      -65.73970695


--------------------------------------------------------------------------------------------------------




--------------------------------------- Iteration      1(  23)  ---------------------------------------


    POTLOK:  cpu time    1.3084: real time    1.3453
    SETDIJ:  cpu time    0.0295: real time    0.0295
     EDDAV:  cpu time   16.4974: real time   16.4796
       DOS:  cpu time    0.0011: real time    0.0011
    CHARGE:  cpu time    0.4740: real time    0.4735
    MIXING:  cpu time    0.0854: real time    0.0853
    --------------------------------------------
      LOOP:  cpu time   18.3959: real time   18.4142

 eigenvalue-minimisations  :  1036
 total energy-change (2. order) :-0.1332158E+01  (-0.9886668E-02)
 number of electron     275.0000306 magnetization       7.2731675
 augmentation part      176.1591881 magnetization       6.3757563

 Broyden mixing:
  rms(total) = 0.66623E-01    rms(broyden)= 0.66611E-01
  rms(prec ) = 0.67872E-01
  weight for this iteration     100.00

 eigenvalues of (default mixing * dielectric matrix)
  average eigenvalue GAMMA=   1.6356
 11.2396  4.6622  2.4404  1.3133  1.3133  1.1154  1.1154  0.8658  0.8658  0.7097
  0.6123  0.6123  0.4999  0.4999  0.3671  0.3671  0.4204  0.4204

 Free energy of the ion-electron system (eV)
  ---------------------------------------------------
  alpha Z        PSCENC =        16.92888975
  Ewald energy   TEWEN  =     86282.17829658
  -Hartree energ DENC   =   -117796.10622041
  -exchange      EXHF   =         0.00000000
  -V(xc)+E(xc)   XCENC  =      1110.28110428
  PAW double counting   =     32345.68461013   -35030.26419093
  entropy T*S    EENTRO =         0.00000000
  eigenvalues    EBANDS =     -1769.16397097
  atomic energy  EATOM  =     34773.38961645
  Solvation  Ediel_sol  =         0.00000000
  ---------------------------------------------------
  free energy    TOTEN  =       -67.07186512 eV

  energy without entropy =      -67.07186512  energy(sigma->0) =      -67.07186512


--------------------------------------------------------------------------------------------------------




--------------------------------------- Iteration      1(  24)  ---------------------------------------


    POTLOK:  cpu time    1.3350: real time    1.3394
    SETDIJ:  cpu time    0.0295: real time    0.0295
     EDDAV:  cpu time   16.2012: real time   16.1837
       DOS:  cpu time    0.0010: real time    0.0010
    CHARGE:  cpu time    0.4755: real time    0.4752
    MIXING:  cpu time    0.0895: real time    0.0894
    --------------------------------------------
      LOOP:  cpu time   18.1317: real time   18.1181

 eigenvalue-minimisations  :  1008
 total energy-change (2. order) :-0.6224712E+00  (-0.2721197E-02)
 number of electron     275.0000305 magnetization       5.8625830
 augmentation part      176.1637605 magnetization       4.9755718

 Broyden mixing:
  rms(total) = 0.53374E-01    rms(broyden)= 0.53368E-01
  rms(prec ) = 0.54303E-01
  weight for this iteration     100.00

 eigenvalues of (default mixing * dielectric matrix)
  average eigenvalue GAMMA=   1.6587
 11.6980  4.9232  2.6059  1.4858  1.4858  1.1830  1.1830  0.8824  0.8824  0.7160
  0.7160  0.5975  0.5975  0.5196  0.3669  0.3669  0.4566  0.4243  0.4243

 Free energy of the ion-electron system (eV)
  ---------------------------------------------------
  alpha Z        PSCENC =        16.92888975
  Ewald energy   TEWEN  =     86282.17829658
  -Hartree energ DENC   =   -117785.06684497
  -exchange      EXHF   =         0.00000000
  -V(xc)+E(xc)   XCENC  =      1109.54245355
  PAW double counting   =     32349.19151927   -35033.70132265
  entropy T*S    EENTRO =         0.00000000
  eigenvalues    EBANDS =     -1780.15694434
  atomic energy  EATOM  =     34773.38961645
  Solvation  Ediel_sol  =         0.00000000
  ---------------------------------------------------
  free energy    TOTEN  =       -67.69433636 eV

  energy without entropy =      -67.69433636  energy(sigma->0) =      -67.69433636


--------------------------------------------------------------------------------------------------------




--------------------------------------- Iteration      1(  25)  ---------------------------------------


    POTLOK:  cpu time    1.3410: real time    1.3401
    SETDIJ:  cpu time    0.0296: real time    0.0296
     EDDAV:  cpu time   18.4145: real time   18.3948
       DOS:  cpu time    0.0016: real time    0.0016
    CHARGE:  cpu time    0.4766: real time    0.4762
    MIXING:  cpu time    0.0942: real time    0.0941
    --------------------------------------------
      LOOP:  cpu time   20.3575: real time   20.3364

 eigenvalue-minimisations  :  1192
 total energy-change (2. order) :-0.4988180E+00  (-0.1968043E-02)
 number of electron     275.0000306 magnetization       4.5554519
 augmentation part      176.2211039 magnetization       3.6852494

 Broyden mixing:
  rms(total) = 0.39580E-01    rms(broyden)= 0.39574E-01
  rms(prec ) = 0.40245E-01
  weight for this iteration     100.00

 eigenvalues of (default mixing * dielectric matrix)
  average eigenvalue GAMMA=   1.6931
 11.9456  5.5665  3.0616  1.5166  1.5166  1.2503  1.2503  0.8741  0.8741  0.8826
  0.8029  0.6106  0.6106  0.5677  0.4823  0.4823  0.3670  0.3670  0.4164  0.4164

 Free energy of the ion-electron system (eV)
  ---------------------------------------------------
  alpha Z        PSCENC =        16.92888975
  Ewald energy   TEWEN  =     86282.17829658
  -Hartree energ DENC   =   -117775.97476284
  -exchange      EXHF   =         0.00000000
  -V(xc)+E(xc)   XCENC  =      1108.86695934
  PAW double counting   =     32351.94703817   -35035.58882263
  entropy T*S    EENTRO =         0.00000000
  eigenvalues    EBANDS =     -1789.94036912
  atomic energy  EATOM  =     34773.38961645
  Solvation  Ediel_sol  =         0.00000000
  ---------------------------------------------------
  free energy    TOTEN  =       -68.19315431 eV

  energy without entropy =      -68.19315431  energy(sigma->0) =      -68.19315431


--------------------------------------------------------------------------------------------------------




--------------------------------------- Iteration      1(  26)  ---------------------------------------


    POTLOK:  cpu time    1.3150: real time    1.3602
    SETDIJ:  cpu time    0.0296: real time    0.0296
     EDDAV:  cpu time   15.7678: real time   15.7515
       DOS:  cpu time    0.0013: real time    0.0013
    CHARGE:  cpu time    0.4745: real time    0.4739
    MIXING:  cpu time    0.0987: real time    0.0987
    --------------------------------------------
      LOOP:  cpu time   17.6869: real time   17.7152

 eigenvalue-minimisations  :   984
 total energy-change (2. order) :-0.4794016E+00  (-0.1126742E-02)
 number of electron     275.0000305 magnetization       3.6298555
 augmentation part      176.2575363 magnetization       2.7598829

 Broyden mixing:
  rms(total) = 0.30678E-01    rms(broyden)= 0.30675E-01
  rms(prec ) = 0.31245E-01
  weight for this iteration     100.00

 eigenvalues of (default mixing * dielectric matrix)
  average eigenvalue GAMMA=   1.7401
 12.0343  6.5231  3.3198  2.0518  1.3292  1.3292  1.2418  1.2418  0.8667  0.8667
  0.7281  0.7281  0.6078  0.6078  0.5569  0.3670  0.3670  0.4711  0.4711  0.4159
  0.4159

 Free energy of the ion-electron system (eV)
  ---------------------------------------------------
  alpha Z        PSCENC =        16.92888975
  Ewald energy   TEWEN  =     86282.17829658
  -Hartree energ DENC   =   -117769.54091978
  -exchange      EXHF   =         0.00000000
  -V(xc)+E(xc)   XCENC  =      1108.30726017
  PAW double counting   =     32357.02825317   -35040.04906833
  entropy T*S    EENTRO =         0.00000000
  eigenvalues    EBANDS =     -1796.91488392
  atomic energy  EATOM  =     34773.38961645
  Solvation  Ediel_sol  =         0.00000000
  ---------------------------------------------------
  free energy    TOTEN  =       -68.67255591 eV

  energy without entropy =      -68.67255591  energy(sigma->0) =      -68.67255591


--------------------------------------------------------------------------------------------------------




--------------------------------------- Iteration      1(  27)  ---------------------------------------


    POTLOK:  cpu time    1.3462: real time    1.3457
    SETDIJ:  cpu time    0.0295: real time    0.0295
     EDDAV:  cpu time   17.0382: real time   17.0211
       DOS:  cpu time    0.0011: real time    0.0011
    CHARGE:  cpu time    0.4778: real time    0.4773
    MIXING:  cpu time    0.1038: real time    0.1037
    --------------------------------------------
      LOOP:  cpu time   18.9967: real time   18.9784

 eigenvalue-minimisations  :  1080
 total energy-change (2. order) :-0.3818409E+00  (-0.5572112E-03)
 number of electron     275.0000306 magnetization       2.7195348
 augmentation part      176.2563728 magnetization       1.8408236

 Broyden mixing:
  rms(total) = 0.23314E-01    rms(broyden)= 0.23312E-01
  rms(prec ) = 0.23761E-01
  weight for this iteration     100.00

 eigenvalues of (default mixing * dielectric matrix)
  average eigenvalue GAMMA=   1.8016
 12.4310  7.4114  3.6062  2.4777  1.3815  1.3815  1.2987  1.2987  0.8717  0.8717
  0.8384  0.8384  0.6785  0.6128  0.6128  0.5027  0.5027  0.3670  0.3670  0.4495
  0.4177  0.4177

 Free energy of the ion-electron system (eV)
  ---------------------------------------------------
  alpha Z        PSCENC =        16.92888975
  Ewald energy   TEWEN  =     86282.17829658
  -Hartree energ DENC   =   -117766.45666448
  -exchange      EXHF   =         0.00000000
  -V(xc)+E(xc)   XCENC  =      1107.94216437
  PAW double counting   =     32360.23629395   -35043.09366548
  entropy T*S    EENTRO =         0.00000000
  eigenvalues    EBANDS =     -1800.17932793
  atomic energy  EATOM  =     34773.38961645
  Solvation  Ediel_sol  =         0.00000000
  ---------------------------------------------------
  free energy    TOTEN  =       -69.05439679 eV

  energy without entropy =      -69.05439679  energy(sigma->0) =      -69.05439679


--------------------------------------------------------------------------------------------------------




--------------------------------------- Iteration      1(  28)  ---------------------------------------


    POTLOK:  cpu time    1.3393: real time    1.3387
    SETDIJ:  cpu time    0.0298: real time    0.0298
     EDDAV:  cpu time   17.0059: real time   16.9889
       DOS:  cpu time    0.0010: real time    0.0010
    CHARGE:  cpu time    0.4754: real time    0.4751
    MIXING:  cpu time    0.1087: real time    0.1087
    --------------------------------------------
      LOOP:  cpu time   18.9602: real time   18.9421

 eigenvalue-minimisations  :  1072
 total energy-change (2. order) :-0.2569755E+00  (-0.3571299E-03)
 number of electron     275.0000306 magnetization       2.1141421
 augmentation part      176.2410463 magnetization       1.2425269

 Broyden mixing:
  rms(total) = 0.16337E-01    rms(broyden)= 0.16336E-01
  rms(prec ) = 0.16652E-01
  weight for this iteration     100.00

 eigenvalues of (default mixing * dielectric matrix)
  average eigenvalue GAMMA=   1.8545
 12.8019  8.4030  3.9335  2.6563  1.7826  1.3321  1.3321  1.1920  1.1920  0.8696
  0.8696  0.7265  0.7265  0.6111  0.6111  0.5974  0.4947  0.4947  0.3670  0.3670
  0.4593  0.4163  0.4163

 Free energy of the ion-electron system (eV)
  ---------------------------------------------------
  alpha Z        PSCENC =        16.92888975
  Ewald energy   TEWEN  =     86282.17829658
  -Hartree energ DENC   =   -117765.14902238
  -exchange      EXHF   =         0.00000000
  -V(xc)+E(xc)   XCENC  =      1107.72960032
  PAW double counting   =     32361.15618835   -35044.14497953
  entropy T*S    EENTRO =         0.00000000
  eigenvalues    EBANDS =     -1801.39996185
  atomic energy  EATOM  =     34773.38961645
  Solvation  Ediel_sol  =         0.00000000
  ---------------------------------------------------
  free energy    TOTEN  =       -69.31137231 eV

  energy without entropy =      -69.31137231  energy(sigma->0) =      -69.31137231


--------------------------------------------------------------------------------------------------------




--------------------------------------- Iteration      1(  29)  ---------------------------------------


    POTLOK:  cpu time    1.3084: real time    1.3422
    SETDIJ:  cpu time    0.0297: real time    0.0296
     EDDAV:  cpu time   15.9097: real time   15.8937
       DOS:  cpu time    0.0013: real time    0.0013
    CHARGE:  cpu time    0.4743: real time    0.4739
    MIXING:  cpu time    0.1142: real time    0.1141
    --------------------------------------------
      LOOP:  cpu time   17.8376: real time   17.8549

 eigenvalue-minimisations  :   992
 total energy-change (2. order) :-0.1175514E+00  (-0.2885078E-03)
 number of electron     275.0000306 magnetization       1.7865887
 augmentation part      176.2093342 magnetization       0.9107929

 Broyden mixing:
  rms(total) = 0.12788E-01    rms(broyden)= 0.12786E-01
  rms(prec ) = 0.13091E-01
  weight for this iteration     100.00

 eigenvalues of (default mixing * dielectric matrix)
  average eigenvalue GAMMA=   1.8714
 13.1756  8.9269  4.1062  2.8208  1.9172  1.3200  1.3200  1.2397  1.2397  0.8724
  0.8724  0.8421  0.8421  0.6760  0.6135  0.6135  0.5115  0.5115  0.3670  0.3670
  0.4632  0.4632  0.4161  0.4161

 Free energy of the ion-electron system (eV)
  ---------------------------------------------------
  alpha Z        PSCENC =        16.92888975
  Ewald energy   TEWEN  =     86282.17829658
  -Hartree energ DENC   =   -117765.47912168
  -exchange      EXHF   =         0.00000000
  -V(xc)+E(xc)   XCENC  =      1107.67115743
  PAW double counting   =     32362.77317116   -35046.13321866
  entropy T*S    EENTRO =         0.00000000
  eigenvalues    EBANDS =     -1800.75771473
  atomic energy  EATOM  =     34773.38961645
  Solvation  Ediel_sol  =         0.00000000
  ---------------------------------------------------
  free energy    TOTEN  =       -69.42892371 eV

  energy without entropy =      -69.42892371  energy(sigma->0) =      -69.42892371


--------------------------------------------------------------------------------------------------------




--------------------------------------- Iteration      1(  30)  ---------------------------------------


    POTLOK:  cpu time    1.3078: real time    1.3422
    SETDIJ:  cpu time    0.0295: real time    0.0294
     EDDAV:  cpu time   17.0260: real time   17.0084
       DOS:  cpu time    0.0009: real time    0.0009
    CHARGE:  cpu time    0.4764: real time    0.4759
    MIXING:  cpu time    0.1190: real time    0.1188
    --------------------------------------------
      LOOP:  cpu time   18.9595: real time   18.9756

 eigenvalue-minimisations  :  1080
 total energy-change (2. order) :-0.6618269E-01  (-0.7699851E-04)
 number of electron     275.0000306 magnetization       1.4761644
 augmentation part      176.2166230 magnetization       0.6015138

 Broyden mixing:
  rms(total) = 0.93461E-02    rms(broyden)= 0.93455E-02
  rms(prec ) = 0.95526E-02
  weight for this iteration     100.00

 eigenvalues of (default mixing * dielectric matrix)
  average eigenvalue GAMMA=   1.9113
 13.5500  9.3388  4.4360  3.0518  2.0807  1.5995  1.3859  1.3859  1.1543  1.1543
  0.8711  0.8711  0.7451  0.7451  0.6686  0.6126  0.6126  0.3670  0.3670  0.5255
  0.4880  0.4880  0.4167  0.4167  0.4506

 Free energy of the ion-electron system (eV)
  ---------------------------------------------------
  alpha Z        PSCENC =        16.92888975
  Ewald energy   TEWEN  =     86282.17829658
  -Hartree energ DENC   =   -117764.45411826
  -exchange      EXHF   =         0.00000000
  -V(xc)+E(xc)   XCENC  =      1107.58167403
  PAW double counting   =     32360.34743289   -35043.60470783
  entropy T*S    EENTRO =         0.00000000
  eigenvalues    EBANDS =     -1801.86219001
  atomic energy  EATOM  =     34773.38961645
  Solvation  Ediel_sol  =         0.00000000
  ---------------------------------------------------
  free energy    TOTEN  =       -69.49510640 eV

  energy without entropy =      -69.49510640  energy(sigma->0) =      -69.49510640


--------------------------------------------------------------------------------------------------------




--------------------------------------- Iteration      1(  31)  ---------------------------------------


    POTLOK:  cpu time    1.3530: real time    1.3523
    SETDIJ:  cpu time    0.0294: real time    0.0294
     EDDAV:  cpu time   15.0329: real time   15.0178
       DOS:  cpu time    0.0011: real time    0.0011
    CHARGE:  cpu time    0.4809: real time    0.4805
    MIXING:  cpu time    0.1244: real time    0.1243
    --------------------------------------------
      LOOP:  cpu time   17.0217: real time   17.0054

 eigenvalue-minimisations  :   920
 total energy-change (2. order) :-0.1010102E+00  (-0.1105501E-03)
 number of electron     275.0000306 magnetization       1.3125195
 augmentation part      176.2425426 magnetization       0.4428154

 Broyden mixing:
  rms(total) = 0.80650E-02    rms(broyden)= 0.80638E-02
  rms(prec ) = 0.82848E-02
  weight for this iteration     100.00

 eigenvalues of (default mixing * dielectric matrix)
  average eigenvalue GAMMA=   1.9289
 13.8010  9.8590  4.8568  3.1804  2.4308  1.5900  1.3466  1.3466  1.2182  1.2182
  0.8726  0.8726  0.8152  0.8152  0.6701  0.6135  0.6135  0.3670  0.3670  0.5301
  0.5301  0.4166  0.4166  0.4766  0.4766  0.4505

 Free energy of the ion-electron system (eV)
  ---------------------------------------------------
  alpha Z        PSCENC =        16.92888975
  Ewald energy   TEWEN  =     86282.17829658
  -Hartree energ DENC   =   -117763.54591752
  -exchange      EXHF   =         0.00000000
  -V(xc)+E(xc)   XCENC  =      1107.43804310
  PAW double counting   =     32356.99134460   -35039.96794407
  entropy T*S    EENTRO =         0.00000000
  eigenvalues    EBANDS =     -1803.00844552
  atomic energy  EATOM  =     34773.38961645
  Solvation  Ediel_sol  =         0.00000000
  ---------------------------------------------------
  free energy    TOTEN  =       -69.59611664 eV

  energy without entropy =      -69.59611664  energy(sigma->0) =      -69.59611664


--------------------------------------------------------------------------------------------------------




[...]
  0.000   0.000  -0.019   0.001  -0.008  -0.001  -0.000   0.012   0.000  -0.001  -0.012  -0.000   0.012   0.023   0.011  -0.001
  0.008  -0.002   0.001  -0.020   0.006   0.000  -0.001   0.000   0.011   0.001   0.030  -0.001  -0.006  -0.002   0.020   0.000
  0.001  -0.004  -0.008   0.006  -0.009  -0.001   0.001  -0.001   0.001   0.012   0.019  -0.001   0.017   0.001  -0.011  -0.001
 -0.003  -0.011  -0.006  -0.019   0.000  -0.005   0.026  -0.012   0.030   0.019   1.693  -0.121  -0.081   0.169  -0.081   0.012
  0.004  -0.005   0.007  -0.006  -0.004   0.000   0.001  -0.000  -0.001  -0.001  -0.121   0.014   0.016  -0.023   0.008  -0.001
 -0.022   0.036   0.016  -0.011   0.023  -0.011   0.018   0.012  -0.006   0.017  -0.081   0.016   0.142   0.018  -0.016  -0.009
 -0.012  -0.015   0.046  -0.012  -0.002  -0.006  -0.005   0.023  -0.002   0.001   0.169  -0.023   0.018   0.119   0.025  -0.000
 -0.005  -0.007   0.016   0.028  -0.011  -0.012  -0.008   0.011   0.020  -0.011  -0.081   0.008  -0.016   0.025   0.169   0.000
  0.011  -0.017  -0.005   0.001  -0.009   0.000  -0.001  -0.001   0.000  -0.001   0.012  -0.001  -0.009  -0.000   0.000   0.001
  0.001   0.005  -0.019   0.009  -0.000   0.000   0.000  -0.001  -0.000  -0.000  -0.023   0.002  -0.000  -0.009  -0.001  -0.000
  0.005   0.001  -0.007  -0.018   0.010   0.001   0.001  -0.001  -0.001   0.001   0.010  -0.001   0.000  -0.001  -0.010   0.000
 total augmentation occupancy for first ion, spin component:           2
  0.001   0.002   0.001   0.000  -0.001   0.000  -0.001  -0.000  -0.000   0.000  -0.004  -0.001  -0.002   0.000   0.002  -0.000
  0.002   0.003   0.002   0.001  -0.001  -0.001  -0.001  -0.001  -0.000   0.001  -0.008  -0.001  -0.003   0.001   0.002  -0.000
  0.001   0.002   0.001   0.000  -0.001  -0.000  -0.001   0.000  -0.000   0.000  -0.003  -0.001  -0.002   0.000   0.001  -0.000
  0.000   0.001   0.000   0.000  -0.000  -0.000  -0.000  -0.000   0.000   0.000  -0.002  -0.000  -0.001  -0.000   0.001   0.000
 -0.001  -0.001  -0.001  -0.000   0.000   0.000   0.000   0.000   0.000   0.000   0.002   0.000   0.000   0.000  -0.001  -0.000
  0.000  -0.001  -0.000  -0.000   0.000   0.000   0.000   0.000   0.000  -0.000   0.001   0.000   0.000  -0.000  -0.000   0.000
 -0.001  -0.001  -0.001  -0.000   0.000   0.000   0.000   0.000   0.000  -0.000   0.002   0.000   0.001  -0.000  -0.001  -0.000
 -0.000  -0.001   0.000  -0.000   0.000   0.000   0.000   0.000   0.000  -0.000   0.001   0.000   0.000  -0.000  -0.000   0.000
 -0.000  -0.000  -0.000   0.000   0.000   0.000   0.000   0.000  -0.000  -0.000   0.001   0.000   0.000  -0.000  -0.000  -0.000
  0.000   0.001   0.000   0.000   0.000  -0.000  -0.000  -0.000  -0.000  -0.000  -0.001  -0.000  -0.000  -0.000   0.000   0.000
 -0.004  -0.008  -0.003  -0.002   0.002   0.001   0.002   0.001   0.001  -0.001   0.017   0.001   0.008  -0.002  -0.005  -0.000
 -0.001  -0.001  -0.001  -0.000   0.000   0.000   0.000   0.000   0.000  -0.000   0.001   0.000   0.000  -0.000  -0.000   0.000
 -0.002  -0.003  -0.002  -0.001   0.000   0.000   0.001   0.000   0.000  -0.000   0.008   0.000   0.002  -0.000  -0.002  -0.000
  0.000   0.001   0.000  -0.000   0.000  -0.000  -0.000  -0.000  -0.000  -0.000  -0.002  -0.000  -0.000   0.000   0.000  -0.000
  0.002   0.002   0.001   0.001  -0.001  -0.000  -0.001  -0.000  -0.000   0.000  -0.005  -0.000  -0.002   0.000   0.001  -0.000
 -0.000  -0.000  -0.000   0.000  -0.000   0.000  -0.000   0.000  -0.000   0.000  -0.000   0.000  -0.000  -0.000  -0.000   0.000
  0.000   0.000  -0.000  -0.000   0.000  -0.000  -0.000  -0.000   0.000   0.000  -0.000  -0.000  -0.000   0.000   0.000   0.000
  0.000  -0.000   0.000  -0.000  -0.000   0.000   0.000   0.000   0.000  -0.000   0.000   0.000   0.000  -0.000  -0.000   0.000


------------------------ aborting loop because EDIFF is reached ----------------------------------------


 


 total charge     
 
# of ion       s       p       d       tot
------------------------------------------
    1        0.462   0.230   9.240   9.933
    2        0.473   0.199   9.250   9.922
    3        0.459   0.197   9.249   9.905
    4        0.445   0.250   9.240   9.934
    5        0.453   0.331   9.200   9.984
    6        0.455   0.181   9.264   9.900
    7        0.444   0.269   9.217   9.929
    8        0.458   0.252   9.220   9.930
    9        0.482   0.184   9.250   9.916
   10        0.450   0.174   9.271   9.894
   11        0.439   0.239   9.242   9.920
   12        0.471   0.418   9.210  10.099
   13        0.477   0.127   9.281   9.885
   14        0.457   0.366   9.227  10.050
   15        0.459   0.228   9.242   9.930
   16        0.426   0.280   9.230   9.935
   17        0.432   0.252   9.236   9.921
   18        0.462   0.200   9.249   9.911
   19        0.453   0.278   9.209   9.940
   20        0.451   0.326   9.201   9.978
   21        0.487   0.150   9.268   9.905
   22        0.459   0.253   9.220   9.932
   23        0.475   0.204   9.247   9.927
   24        0.480   0.184   9.251   9.914
   25        0.446   0.247   9.239   9.932
--------------------------------------------------
tot         11.452   6.021 230.951 248.425
 


 magnetization (x)
 
# of ion       s       p       d       tot
------------------------------------------
    1        0.007   0.002   0.005   0.015
    2       -0.000   0.005   0.007   0.012
    3        0.003   0.002   0.008   0.013
    4       -0.000   0.009   0.008   0.016
    5        0.004   0.005   0.000   0.009
    6        0.014   0.009  -0.003   0.020
    7        0.014   0.001   0.007   0.022
    8       -0.001   0.004   0.004   0.007
    9        0.000   0.007   0.010   0.017
   10        0.014   0.009  -0.001   0.021
   11        0.026   0.004  -0.001   0.029
   12        0.002  -0.001   0.031   0.032
   13       -0.001   0.007   0.015   0.021
   14        0.001   0.001   0.022   0.025
   15        0.006   0.003   0.005   0.014
   16        0.012   0.003   0.010   0.025
   17        0.000   0.016   0.010   0.026
   18        0.003   0.002   0.008   0.013
   19        0.053   0.010  -0.005   0.058
   20        0.004   0.005   0.000   0.010
   21        0.001   0.009   0.016   0.027
   22       -0.001   0.004   0.003   0.007
   23       -0.000   0.005   0.008   0.013
   24        0.000   0.007   0.009   0.016
   25       -0.000   0.008   0.009   0.016
--------------------------------------------------
tot          0.162   0.136   0.185   0.484
 
    CHARGE:  cpu time    0.4899: real time    0.4893
    FORLOC:  cpu time    0.1429: real time    0.1428
    FORNL :  cpu time    4.2172: real time    4.2139
    STRESS:  cpu time   14.9532: real time   14.9354
    FORCOR:  cpu time    1.4455: real time    1.4443
    FORHAR:  cpu time    0.2563: real time    0.2562
    MIXING:  cpu time    0.0426: real time    0.0426
    OFIELD:  cpu time    0.0001: real time    0.0001

  FORCE on cell =-STRESS in cart. coord.  units (eV):
  Direction    XX          YY          ZZ          XY          YZ          ZX
  --------------------------------------------------------------------------------------
  Alpha Z    16.92889    16.92889    16.92889
  Ewald   30976.98547 28799.16155 26785.43774 -7428.44456  3720.24033 -3554.29671
  Hartree 41315.15714 39334.47496 37404.76104 -6853.55355  3439.48367 -3290.26330
  E(xc)   -1604.57912 -1604.92464 -1605.00564    -0.91235     0.43757    -0.40781
  Local  -74725.83435-70570.02387-66627.42234 14278.57186 -7157.89053  6841.89820
  n-local  -586.09334  -587.10925  -587.32256    -3.34514     1.60736    -1.31179
  augment  2348.74076  2350.58020  2351.20068     3.61083    -1.83648     2.10838
  Kinetic  2251.74647  2254.17612  2254.47678     4.09684    -2.02538     2.27603
  Fock        0.00000     0.00000     0.00000     0.00000     0.00000     0.00000
  -------------------------------------------------------------------------------------
  Total      -6.94809    -6.73604    -6.94542     0.02394     0.01654     0.00300
  in kB      -0.41230    -0.39972    -0.41214     0.00142     0.00098     0.00018
  external pressure =       -0.41 kB  Pullay stress =        0.00 kB


 VOLUME and BASIS-vectors are now :
 -----------------------------------------------------------------------------
  energy-cutoff  :      295.45
  volume of cell :    27000.00
      direct lattice vectors                 reciprocal lattice vectors
    30.000000000  0.000000000  0.000000000     0.033333333  0.000000000  0.000000000
     0.000000000 30.000000000  0.000000000     0.000000000  0.033333333  0.000000000
     0.000000000  0.000000000 30.000000000     0.000000000  0.000000000  0.033333333

  length of vectors
    30.000000000 30.000000000 30.000000000     0.033333333  0.033333333  0.033333333


 FORCES acting on ions
    electron-ion (+dipol)            ewald-force                    non-local-force                 convergence-correction
 -----------------------------------------------------------------------------------------------
   -.619E+03 -.834E+03 0.157E+04   0.616E+03 0.833E+03 -.157E+04   0.246E+01 0.106E+01 -.433E+01   0.153E-02 0.816E-02 -.118E-02
   0.720E+03 0.798E+01 0.178E+04   -.718E+03 -.694E+01 -.177E+04   -.220E+01 -.101E+01 -.678E+01   0.704E-02 -.718E-02 -.106E-01
   -.348E+03 0.767E+03 0.173E+04   0.347E+03 -.765E+03 -.173E+04   0.781E+00 -.180E+01 -.656E+01   0.743E-03 -.231E-02 0.680E-02
   0.164E+04 0.130E+03 0.840E+03   -.163E+04 -.129E+03 -.839E+03   -.473E+01 -.605E+00 -.154E+01   0.217E-03 -.525E-02 -.116E-01
   0.813E+03 0.104E+04 0.934E+03   -.813E+03 -.104E+04 -.933E+03   -.145E+00 -.144E+01 -.686E+00   0.995E-03 -.314E-02 -.398E-02
   -.153E+04 0.876E+03 0.765E+03   0.153E+04 -.872E+03 -.762E+03   0.646E+01 -.365E+01 -.325E+01   0.286E-02 0.109E-01 0.102E-01
   -.918E+03 -.153E+04 0.210E+03   0.916E+03 0.152E+04 -.210E+03   0.279E+01 0.379E+01 -.701E+00   0.315E-02 0.357E-03 0.773E-02
   0.333E+03 -.133E+04 0.117E+04   -.333E+03 0.133E+04 -.116E+04   -.687E+00 0.276E+01 -.215E+01   0.211E-02 -.713E-02 0.685E-02
   0.135E+04 -.109E+04 0.633E+03   -.134E+04 0.109E+04 -.628E+03   -.545E+01 0.324E+01 -.457E+01   -.174E-02 -.405E-03 -.109E-01
   -.170E+04 -.600E+03 0.701E+03   0.169E+04 0.597E+03 -.699E+03   0.671E+01 0.332E+01 -.274E+01   0.398E-02 -.172E-02 0.509E-02
   -.423E+03 0.181E+04 0.423E+03   0.422E+03 -.181E+04 -.422E+03   0.831E+00 -.500E+01 -.106E+01   0.596E-02 0.818E-02 0.861E-02
   -.672E+03 0.201E+03 0.319E+03   0.670E+03 -.201E+03 -.318E+03   0.177E+01 -.890E-01 -.769E+00   0.132E-02 0.700E-03 0.261E-02
   0.745E+03 0.175E+04 -.817E+02   -.741E+03 -.174E+04 0.814E+02   -.401E+01 -.965E+01 0.291E+00   -.346E-03 0.186E-02 0.250E-02
   0.244E+03 -.185E+03 -.132E+03   -.243E+03 0.184E+03 0.131E+03   -.653E+00 0.128E+01 0.441E+00   -.248E-03 -.310E-02 0.431E-02
   -.166E+04 -.536E+03 -.728E+03   0.166E+04 0.536E+03 0.726E+03   0.515E+01 0.458E+00 0.116E+01   -.256E-02 0.293E-02 0.440E-02
   -.995E+01 -.169E+04 -.217E+03   0.994E+01 0.169E+04 0.216E+03   0.233E-01 0.383E+01 0.504E+00   -.997E-02 -.586E-02 -.432E-02
   0.151E+04 0.101E+04 -.531E+03   -.150E+04 -.101E+04 0.530E+03   -.503E+01 -.326E+01 0.182E+01   -.563E-03 -.142E-02 -.324E-02
   -.141E+04 0.109E+04 -.733E+03   0.140E+04 -.109E+04 0.730E+03   0.489E+01 -.314E+01 0.344E+01   0.924E-02 0.707E-02 0.434E-02
   0.158E+04 -.220E+02 -.707E+03   -.158E+04 0.208E+02 0.706E+03   -.191E+01 0.130E+01 0.108E+01   -.490E-02 -.522E-03 -.888E-02
   -.106E+02 0.130E+04 -.984E+03   0.104E+02 -.129E+04 0.984E+03   0.265E+00 -.166E+01 0.281E+00   0.474E-02 0.614E-02 0.572E-02
   0.111E+04 -.124E+04 -.661E+03   -.110E+04 0.123E+04 0.657E+03   -.632E+01 0.730E+01 0.371E+01   -.292E-02 -.386E-02 -.147E-01
   -.759E+03 -.102E+04 -.128E+04   0.758E+03 0.102E+04 0.128E+04   0.136E+01 0.216E+01 0.237E+01   -.729E-02 -.485E-02 0.193E-02
   -.817E+03 0.437E+03 -.168E+04   0.814E+03 -.434E+03 0.168E+04   0.329E+01 -.239E+01 0.559E+01   -.104E-01 -.165E-02 0.108E-01
   0.334E+03 -.793E+03 -.163E+04   -.334E+03 0.791E+03 0.162E+04   0.161E+00 0.161E+01 0.768E+01   -.611E-02 -.111E-02 -.174E-02
   0.505E+03 0.466E+03 -.171E+04   -.503E+03 -.465E+03 0.171E+04   -.221E+01 -.139E+01 0.433E+01   -.589E-02 -.345E-02 -.142E-02
 -----------------------------------------------------------------------------------------------
   -.353E+01 0.316E+01 0.221E+01   0.114E-11 0.455E-12 0.205E-11   0.360E+01 -.299E+01 -.244E+01   -.904E-02 -.672E-02 0.939E-02
 
 
 POSITION                                       TOTAL-FORCE (eV/Angst)
 -----------------------------------------------------------------------------------
      9.57857      9.33366      5.78574         0.003708     -0.017226     -0.000624
      7.43330      8.35374      5.39179        -0.007094      0.010101      0.011731
      9.49482      6.84200      5.47793        -0.009929     -0.004090     -0.009832
      5.87751      8.59074      7.28549        -0.006962      0.008225      0.014873
      7.56084      6.69901      7.09525         0.002029      0.001771      0.002950
     11.61503      6.41372      6.76287        -0.016753     -0.003360     -0.018164
      9.71198     10.26943      8.04450         0.001280     -0.004311     -0.003490
      7.56723     10.38862      6.74264         0.005380      0.004731     -0.005129
      5.42527     10.93562      7.87534         0.006895      0.001750      0.011498
     11.72026      8.87693      6.93987         0.001378      0.008048      0.012065
      9.53665      5.25931      7.48904        -0.002134     -0.008057     -0.018863
      9.81788      7.70987      7.68245         0.003498     -0.010159     -0.003589
      7.21243      4.72218      8.40072        -0.002869     -0.001922     -0.001649
      7.88588      8.72443      8.65698         0.005766      0.002069     -0.005300
     11.20762      8.84903      9.37213         0.001579      0.005279      0.006163
      7.50772     11.13756      9.13687         0.001603     -0.001692     -0.004489
      6.22631      6.92610      9.14745         0.005944     -0.001579      0.008608
     11.09624      6.34000      9.20110        -0.005012     -0.008383     -0.003016
      5.67348      9.30355      9.71925        -0.003799      0.007695      0.015887
      8.59679      6.37330      9.48876         0.003270     -0.004032     -0.006483
      5.33503     11.64867     10.18391        -0.003306      0.001689      0.009127
      9.23492      9.89381     10.46663         0.001917      0.007862      0.000556
      9.93729      7.63820     11.01088        -0.001982     -0.006612     -0.007301
      7.01604     10.46219     11.44258         0.002881      0.006923     -0.006271
      7.52228      8.09969     10.99120         0.012714      0.005279      0.000743
 -----------------------------------------------------------------------------------
    total drift:                                0.062839      0.165741     -0.219434


--------------------------------------------------------------------------------------------------------



  FREE ENERGIE OF THE ION-ELECTRON SYSTEM (eV)
  ---------------------------------------------------
  free  energy   TOTEN  =       -70.02277046 eV

  energy  without entropy=      -70.02277046  energy(sigma->0) =      -70.02277046
 
 d Force = 0.7900110E-03[ 0.558E-03, 0.102E-02]  d Energy = 0.7983747E-03-0.836E-05
 d Force =-0.4785428E+01[-0.475E+01,-0.482E+01]  d Ewald  =-0.4785430E+01 0.215E-05


--------------------------------------------------------------------------------------------------------


    POTLOK:  cpu time    1.3710: real time    1.3699


--------------------------------------------------------------------------------------------------------


 Conjugate gradient step on ions:
 trial-energy change:   -0.000798  1 .order   -0.000790   -0.001022   -0.000558
  (g-gl).g = 0.230E-03      g.g   = 0.435E-03  gl.gl    = 0.582E-03
 g(Force)  = 0.435E-03   g(Stress)= 0.000E+00 ortho     = 0.851E-04
 gamma     =   0.39502
 trial     =   2.17930
 opt step  =   4.33397  (harmonic =   4.79701) maximal distance =0.00816252
 next E    =   -70.023054   (d E  =  -0.00108)


--------------------------------------------------------------------------------------------------------


  
 reached required accuracy - stopping structural energy minimisation
     LOOP+:  cpu time  150.7020: real time  150.7045
    4ORBIT:  cpu time    0.0002: real time    0.0002
 


 total charge     
 
# of ion       s       p       d       tot
------------------------------------------
    1        0.462   0.230   9.240   9.933
    2        0.473   0.199   9.250   9.922
    3        0.459   0.197   9.249   9.905
    4        0.445   0.250   9.240   9.934
    5        0.453   0.331   9.200   9.984
    6        0.455   0.181   9.264   9.900
    7        0.444   0.269   9.217   9.929
    8        0.458   0.252   9.220   9.930
    9        0.482   0.184   9.250   9.916
   10        0.450   0.174   9.271   9.894
   11        0.439   0.239   9.242   9.920
   12        0.471   0.418   9.210  10.099
   13        0.477   0.127   9.281   9.885
   14        0.457   0.366   9.227  10.050
   15        0.459   0.228   9.242   9.930
   16        0.426   0.280   9.230   9.935
   17        0.432   0.252   9.236   9.921
   18        0.462   0.200   9.249   9.911
   19        0.453   0.278   9.209   9.940
   20        0.451   0.326   9.201   9.978
   21        0.487   0.150   9.268   9.905
   22        0.459   0.253   9.220   9.932
   23        0.475   0.204   9.247   9.927
   24        0.480   0.184   9.251   9.914
   25        0.446   0.247   9.239   9.932
--------------------------------------------------
tot         11.452   6.021 230.951 248.425
 


 magnetization (x)
 
# of ion       s       p       d       tot
------------------------------------------
    1        0.007   0.002   0.005   0.015
    2       -0.000   0.005   0.007   0.012
    3        0.003   0.002   0.008   0.013
    4       -0.000   0.009   0.008   0.016
    5        0.004   0.005   0.000   0.009
    6        0.014   0.009  -0.003   0.020
    7        0.014   0.001   0.007   0.022
    8       -0.001   0.004   0.004   0.007
    9        0.000   0.007   0.010   0.017
   10        0.014   0.009  -0.001   0.021
   11        0.026   0.004  -0.001   0.029
   12        0.002  -0.001   0.031   0.032
   13       -0.001   0.007   0.015   0.021
   14        0.001   0.001   0.022   0.025
   15        0.006   0.003   0.005   0.014
   16        0.012   0.003   0.010   0.025
   17        0.000   0.016   0.010   0.026
   18        0.003   0.002   0.008   0.013
   19        0.053   0.010  -0.005   0.058
   20        0.004   0.005   0.000   0.010
   21        0.001   0.009   0.016   0.027
   22       -0.001   0.004   0.003   0.007
   23       -0.000   0.005   0.008   0.013
   24        0.000   0.007   0.009   0.016
   25       -0.000   0.008   0.009   0.016
--------------------------------------------------
tot          0.162   0.136   0.185   0.484
 

 total amount of memory used by VASP MPI-rank0    91084. kBytes
=======================================================================

   base      :      30000. kBytes
   nonl-proj :       5283. kBytes
   fftplans  :      11297. kBytes
   grid      :      28594. kBytes
   one-center:         31. kBytes
   wavefun   :      15879. kBytes
 
  
  
 General timing and accounting informations for this job:
 ========================================================
  
                  Total CPU time used (sec):    17222.127
                            User time (sec):    17034.099
                          System time (sec):      188.028
                         Elapsed time (sec):    17654.471
  
                   Maximum memory used (kb):      740560.
                   Average memory used (kb):           0.
  
                          Minor page faults:      3171702
                          Major page faults:          184
                 Voluntary context switches:       171789
