 vasp.5.4.1 05Feb16 (build Apr 11 2020 03:28:46) gamma-only                     
  
 executed on           IFC91_ompi date 2022.05.23  14:49:23
 running on   24 total cores
 distrk:  each k-point on   24 cores,    1 groups
 distr:  one band on NCORES_PER_BAND=   6 cores,    4 groups


--------------------------------------------------------------------------------------------------------


 INCAR:
 POTCAR:    PAW_PBE Cu 22Jun2005                  
 POTCAR:    PAW_PBE Cu 22Jun2005                  
   VRHFIN =Cu: d10 p1                                                           
   LEXCH  = PE                                                                  
   EATOM  =  1390.9808 eV,  102.2342 Ry                                         
                                                                                
   TITEL  = PAW_PBE Cu 22Jun2005                                                
   LULTRA =        F    use ultrasoft PP ?                                      
   IUNSCR =        1    unscreen: 0-lin 1-nonlin 2-no                           
   RPACOR =    2.000    partial core radius                                     
   POMASS =   63.546; ZVAL   =   11.000    mass and valenz                      
   RCORE  =    2.300    outmost cutoff radius                                   
   RWIGS  =    2.200; RWIGS  =    1.164    wigner-seitz radius (au A)           
   ENMAX  =  295.446; ENMIN  =  221.585 eV                                      
   ICORE  =        3    local potential                                         
   LCOR   =        T    correct aug charges                                     
   LPAW   =        T    paw PP                                                  
   EAUG   =  586.980                                                            
   DEXC   =    0.000                                                            
   RMAX   =    2.344    core radius for proj-oper                               
   RAUG   =    1.300    factor for augmentation sphere                          
   RDEP   =    2.302    radius for radial grids                                 
   RDEPT  =    1.771    core radius for aug-charge                              
                                                                                
   Atomic configuration                                                         
    9 entries                                                                   
     n  l   j            E        occ.                                          
     1  0  0.50     -8850.2468   2.0000                                         
     2  0  0.50     -1062.3498   2.0000                                         
     2  1  1.50      -916.8226   6.0000                                         
     3  0  0.50      -114.6929   2.0000                                         
     3  1  1.50       -72.1325   6.0000                                         
     3  2  2.50        -5.0394  10.0000                                         
     4  0  0.50        -4.6097   1.0000                                         
     4  1  0.50        -4.0817   0.0000                                         
     4  3  2.50        -1.3606   0.0000                                         
   Description                                                                  
     l       E           TYP  RCUT    TYP  RCUT                                 
     2     -5.0393973     23  2.200                                             
     2     10.8846608     23  2.200                                             
     0     -4.6097109     23  2.200                                             
     0      8.2520465     23  2.200                                             
     1     -2.7211652     23  2.200                                             
     1     21.7055443     23  2.200                                             
     3      2.7211652     23  2.300                                             
  local pseudopotential read in
  partial core-charges read in
  partial kinetic energy density read in
  atomic valenz-charges read in
  non local Contribution for L=           2  read in
    real space projection operators read in
  non local Contribution for L=           2  read in
    real space projection operators read in
  non local Contribution for L=           0  read in
    real space projection operators read in
  non local Contribution for L=           0  read in
    real space projection operators read in
  non local Contribution for L=           1  read in
    real space projection operators read in
  non local Contribution for L=           1  read in
    real space projection operators read in
    PAW grid and wavefunctions read in
 
   number of l-projection  operators is LMAX  =           6
   number of lm-projection operators is LMMAX =          18
 

 ----------------------------------------------------------------------------- 
|                                                                             |
|  ADVICE TO THIS USER RUNNING 'VASP/VAMP'   (HEAR YOUR MASTER'S VOICE ...):  |
|                                                                             |
|      You have a (more or less) 'large supercell' and for larger cells       |
|      it might be more efficient to use real space projection opertators     |
|      So try LREAL= Auto  in the INCAR   file.                               |
|      Mind: At the moment your POTCAR file does not contain real space       |
|       projectors, and has to be modified,  BUT if you                       |
|      want to do an extremely  accurate calculation you might also keep the  |
|      reciprocal projection scheme          (i.e. LREAL=.FALSE.)             |
|                                                                             |
 ----------------------------------------------------------------------------- 

  PAW_PBE Cu 22Jun2005                  :
 energy of atom  1       EATOM=-1390.9808
 kinetic energy error for atom=    0.0452 (will be added to EATOM!!)
 
 
 POSCAR: Unknown Structure <s> Cu </s>           
  positions in direct lattice
  velocities in cartesian coordinates
 exchange correlation table for  LEXCH =        8
   RHO(1)=    0.500       N(1)  =     2000
   RHO(2)=  100.500       N(2)  =     4000
 


--------------------------------------------------------------------------------------------------------


 ion  position               nearest neighbor table
   1  0.344  0.494  0.584-   5 2.41   2 2.42  11 2.43  10 2.44
   2  0.448  0.490  0.586-   1 2.42   3 2.49   6 2.50  10 2.51  12 2.51  13 2.51  11 2.51   5 2.54

   3  0.554  0.487  0.584-   4 2.42   6 2.49   2 2.49  15 2.51  14 2.51  13 2.51  12 2.51   7 2.55

   4  0.658  0.485  0.579-   7 2.41   3 2.42  15 2.44  14 2.44
   5  0.392  0.504  0.493-   1 2.41   8 2.50  11 2.51  17 2.51  10 2.52  16 2.52   6 2.53   2 2.54

   6  0.500  0.501  0.493-   3 2.49   9 2.49   8 2.49   2 2.50   7 2.53   5 2.53  16 2.57  19 2.57
                            17 2.57  18 2.58  12 2.59  13 2.60
   7  0.609  0.498  0.489-   4 2.41   9 2.50  14 2.51  15 2.51  19 2.52  18 2.52   6 2.53   3 2.55

   8  0.447  0.514  0.401-   9 2.44  21 2.45  20 2.46   6 2.49   5 2.50  16 2.54  17 2.54
   9  0.551  0.512  0.400-   8 2.44  20 2.45  21 2.46   6 2.49   7 2.50  19 2.54  18 2.54
  10  0.396  0.583  0.566-   1 2.44  22 2.45  16 2.47  12 2.51   2 2.51   5 2.52
  11  0.390  0.409  0.544-   1 2.43  23 2.45  17 2.47  13 2.51   5 2.51   2 2.51
  12  0.503  0.581  0.570-  24 2.42  22 2.43  10 2.51  14 2.51   3 2.51   2 2.51   6 2.59  16 2.61
                            18 2.63
  13  0.498  0.403  0.547-  23 2.42  25 2.43  15 2.51   3 2.51  11 2.51   2 2.51   6 2.60  17 2.61
                            19 2.63
  14  0.611  0.577  0.563-  24 2.44   4 2.44  18 2.47  12 2.51   3 2.51   7 2.51
  15  0.605  0.403  0.540-   4 2.44  25 2.44  19 2.47  13 2.51   3 2.51   7 2.51
  16  0.447  0.595  0.474-  26 2.44  22 2.45  20 2.45  10 2.47   5 2.52   8 2.54   6 2.57  18 2.61
                            12 2.61
  17  0.441  0.417  0.451-  27 2.44  23 2.44  21 2.46  11 2.47   5 2.51   8 2.54   6 2.57  19 2.61
                            13 2.61
  18  0.558  0.593  0.472-  26 2.44  24 2.45  20 2.45  14 2.47   7 2.52   9 2.54   6 2.58  16 2.61
                            12 2.63
  19  0.553  0.415  0.449-  27 2.44  25 2.44  21 2.46  15 2.47   7 2.52   9 2.54   6 2.57  17 2.61
                            13 2.63
  20  0.501  0.603  0.385-  16 2.45  18 2.45   9 2.45   8 2.46  26 2.47
  21  0.496  0.430  0.362-   8 2.45  19 2.46   9 2.46  17 2.46  27 2.46
  22  0.452  0.670  0.549-  12 2.43  16 2.45  10 2.45  24 2.47  26 2.48
  23  0.442  0.327  0.504-  13 2.42  17 2.44  11 2.45  25 2.47  27 2.49
  24  0.558  0.666  0.547-  12 2.42  14 2.44  18 2.45  22 2.47  26 2.49
  25  0.548  0.324  0.502-  13 2.43  15 2.44  19 2.44  23 2.47  27 2.48
  26  0.504  0.681  0.456-  16 2.44  18 2.44  20 2.47  22 2.48  24 2.49
  27  0.494  0.337  0.411-  17 2.44  19 2.44  21 2.46  25 2.48  23 2.49
 

IMPORTANT INFORMATION: All symmetrisations will be switched off!
NOSYMM: (Re-)initialisation of all symmetry stuff for point group C_1.

 
 
 KPOINTS: Gamma only                              
  k-points in reciprocal lattice
Space group operators:
 irot       det(A)        alpha          n_x          n_y          n_z        tau_x        tau_y        tau_z
    1     1.000000     0.000000     1.000000     0.000000     0.000000     0.000000     0.000000     0.000000


--------------------------------------------------------------------------------------------------------




 Dimension of arrays:
   k-points           NKPTS =      1   k-points in BZ     NKDIM =      1   number of bands    NBANDS=    220
   number of dos      NEDOS =    301   number of ions     NIONS =     27
   non local maximal  LDIM  =      6   non local SUM 2l+1 LMDIM =     18
   total plane-waves  NPLWV = 941192
   max r-space proj   IRMAX =      1   max aug-charges    IRDMAX=   2352
   dimension x,y,z NGX =    98 NGY =   98 NGZ =   98
   dimension x,y,z NGXF=   196 NGYF=  196 NGZF=  196
   support grid    NGXF=   196 NGYF=  196 NGZF=  196
   ions per type =              27
 NGX,Y,Z   is equivalent  to a cutoff of   6.99,  6.99,  6.99 a.u.
 NGXF,Y,Z  is equivalent  to a cutoff of  13.98, 13.98, 13.98 a.u.


 I would recommend the setting:
   dimension x,y,z NGX =    98 NGY =   98 NGZ =   98
 SYSTEM =  unknown system                          
 POSCAR =  Unknown Structure <s> Cu </s>           

 Startparameter for this run:
   NWRITE =      2    write-flag & timer
   PREC   = normal    normal or accurate (medium, high low for compatibility)
   ISTART =      0    job   : 0-new  1-cont  2-samecut
   ICHARG =      2    charge: 1-file 2-atom 10-const
   ISPIN  =      2    spin polarized calculation?
   LNONCOLLINEAR =      F non collinear calculations
   LSORBIT =      F    spin-orbit coupling
   INIWAV =      1    electr: 0-lowe 1-rand  2-diag
   LASPH  =      F    aspherical Exc in radial PAW
   METAGGA=      F    non-selfconsistent MetaGGA calc.

 Electronic Relaxation 1
   ENCUT  =  295.4 eV  21.71 Ry    4.66 a.u.  32.67 32.67 32.67*2*pi/ulx,y,z
   ENINI  =  295.4     initial cutoff
   ENAUG  =  587.0 eV  augmentation charge cutoff
   NELM   =     60;   NELMIN=  2; NELMDL=  0     # of ELM steps 
   EDIFF  = 0.1E-05   stopping-criterion for ELM
   LREAL  =      F    real-space projection
   NLSPLINE    = F    spline interpolate recip. space projectors
   LCOMPAT=      F    compatible to vasp.4.4
   GGA_COMPAT  = T    GGA compatible to vasp.4.4-vasp.4.6
   LMAXPAW     = -100 max onsite density
   LMAXMIX     =    2 max onsite mixed and CHGCAR
   VOSKOWN=      0    Vosko Wilk Nusair interpolation
   ROPT   =    0.00000
 Ionic relaxation
   EDIFFG = -.3E-01   stopping-criterion for IOM
   NSW    =   1000    number of steps for IOM
   NBLOCK =      1;   KBLOCK =   1000    inner block; outer block 
   IBRION =      2    ionic relax: 0-MD 1-quasi-New 2-CG
   NFREE  =      1    steps in history (QN), initial steepest desc. (CG)
   ISIF   =      2    stress and relaxation
   IWAVPR =     11    prediction:  0-non 1-charg 2-wave 3-comb
   ISYM   =      0    0-nonsym 1-usesym 2-fastsym
   LCORR  =      T    Harris-Foulkes like correction to forces

   POTIM  = 0.5000    time-step for ionic-motion
   TEIN   =    0.0    initial temperature
   TEBEG  =    0.0;   TEEND  =   0.0 temperature during run
   SMASS  =  -3.00    Nose mass-parameter (am)
   estimated Nose-frequenzy (Omega)   =  0.10E-29 period in steps =****** mass=  -0.124E-25a.u.
   SCALEE = 1.0000    scale energy and forces
   NPACO  =    256;   APACO  = 16.0  distance and # of slots for P.C.
   PSTRESS=    0.0 pullay stress

  Mass of Ions in am
   POMASS =  63.55
  Ionic Valenz
   ZVAL   =  11.00
  Atomic Wigner-Seitz radii
   RWIGS  =  -1.00
  virtual crystal weights 
   VCA    =   1.00
   NELECT =     297.0000    total number of electrons
   NUPDOWN=      -1.0000    fix difference up-down

 DOS related values:
   EMIN   =  10.00;   EMAX   =-10.00  energy-range for DOS
   EFERMI =   0.00
   ISMEAR =     0;   SIGMA  =   0.00  broadening in eV -4-tet -1-fermi 0-gaus

 Electronic relaxation 2 (details)
   IALGO  =     68    algorithm
   LDIAG  =      T    sub-space diagonalisation (order eigenvalues)
   LSUBROT=      F    optimize rotation matrix (better conditioning)
   TURBO    =      0    0=normal 1=particle mesh
   IRESTART =      0    0=no restart 2=restart with 2 vectors
   NREBOOT  =      0    no. of reboots
   NMIN     =      0    reboot dimension
   EREF     =   0.00    reference energy to select bands
   IMIX   =      4    mixing-type and parameters
     AMIX     =   0.20;   BMIX     =  0.00
     AMIX_MAG =   0.80;   BMIX_MAG =  0.00
     AMIN     =   0.10
     WC   =   100.;   INIMIX=   1;  MIXPRE=   1;  MAXMIX= -45

 Intra band minimization:
   WEIMIN = 0.0010     energy-eigenvalue tresh-hold
   EBREAK =  0.11E-08  absolut break condition
   DEPER  =   0.30     relativ break condition  

   TIME   =   0.40     timestep for ELM

  volume/ion in A,a.u.               =     469.01      3165.02
  Fermi-wavevector in a.u.,A,eV,Ry     =   0.468611  0.885547  2.987790  0.219596
  Thomas-Fermi vector in A             =   1.459689
 
 Write flags
   LWAVE  =      F    write WAVECAR
   LCHARG =      F    write CHGCAR
   LVTOT  =      F    write LOCPOT, total local potential
   LVHAR  =      F    write LOCPOT, Hartree potential only
   LELF   =      F    write electronic localiz. function (ELF)
   LORBIT =     11    0 simple, 1 ext, 2 COOP (PROOUT)


 Dipole corrections
   LMONO  =      F    monopole corrections only (constant potential shift)
   LDIPOL =      F    correct potential (dipole corrections)
   IDIPOL =      0    1-x, 2-y, 3-z, 4-all directions 
   EPSILON=  1.0000000 bulk dielectric constant

 Exchange correlation treatment:
   GGA     =    PE    GGA type
   LEXCH   =     8    internal setting for exchange type
   VOSKOWN=      0    Vosko Wilk Nusair interpolation
   LHFCALC =     F    Hartree Fock is set to
   LHFONE  =     F    Hartree Fock one center treatment
   AEXX    =    0.0000 exact exchange contribution

 Linear response parameters
   LEPSILON=     F    determine dielectric tensor
   LRPA    =     F    only Hartree local field effects (RPA)
   LNABLA  =     F    use nabla operator in PAW spheres
   LVEL    =     F    velocity operator in full k-point grid
   LINTERFAST=   F  fast interpolation
   KINTER  =     0    interpolate to denser k-point grid
   CSHIFT  =0.1000    complex shift for real part using Kramers Kronig
   OMEGAMAX=  -1.0    maximum frequency
   DEG_THRESHOLD= 0.2000000E-02 threshold for treating states as degnerate
   RTIME   =    0.100 relaxation time in fs

 Orbital magnetization related:
   ORBITALMAG=     F  switch on orbital magnetization
   LCHIMAG   =     F  perturbation theory with respect to B field
   DQ        =  0.001000  dq finite difference perturbation B field



--------------------------------------------------------------------------------------------------------


 conjugate gradient relaxation of ions
 charge density and potential will be updated during run
 spin polarized calculation
 RMM-DIIS sequential band-by-band and
  variant of blocked Davidson during initial phase
 perform sub-space diagonalisation
    before iterative eigenvector-optimisation
 modified Broyden-mixing scheme, WC =      100.0
 initial mixing is a Kerker type mixing with AMIX =  0.2000 and BMIX =      0.0001
 Hartree-type preconditioning will be used
 using additional bands           71
 reciprocal scheme for non local part
 use partial core corrections
 calculate Harris-corrections to forces 
   (improved forces if not selfconsistent)
 use gradient corrections 
 use of overlap-Matrix (Vanderbilt PP)
 Gauss-broadening in eV      SIGMA  =   0.00


--------------------------------------------------------------------------------------------------------


  energy-cutoff  :      295.45
  volume of cell :    12663.19
      direct lattice vectors                 reciprocal lattice vectors
    23.308503404  0.000000000  0.000000000     0.042902797  0.000000000  0.000000000
     0.000000000 23.308503404  0.000000000     0.000000000  0.042902797  0.000000000
     0.000000000  0.000000000 23.308503404     0.000000000  0.000000000  0.042902797

  length of vectors
    23.308503404 23.308503404 23.308503404     0.042902797  0.042902797  0.042902797


 
 k-points in units of 2pi/SCALE and weight: Gamma only                              
   0.00000000  0.00000000  0.00000000       1.000
 
 k-points in reciprocal lattice and weights: Gamma only                              
   0.00000000  0.00000000  0.00000000       1.000
 
 position of ions in fractional coordinates (direct lattice) 
   0.34388155  0.49362777  0.58392954
   0.44753469  0.49042523  0.58563357
   0.55430615  0.48742752  0.58374392
   0.65811165  0.48481646  0.57920029
   0.39168495  0.50388369  0.49284080
   0.50012728  0.50096100  0.49281501
   0.60851415  0.49821775  0.48923794
   0.44651793  0.51434285  0.40128074
   0.55119853  0.51157521  0.39950366
   0.39577129  0.58284321  0.56636471
   0.39045346  0.40910937  0.54393787
   0.50325897  0.58118944  0.56986806
   0.49793519  0.40347495  0.54686902
   0.61051452  0.57676425  0.56290257
   0.60525811  0.40332586  0.54013397
   0.44660252  0.59534769  0.47429216
   0.44104169  0.41743635  0.45128684
   0.55835040  0.59257784  0.47227407
   0.55278683  0.41473640  0.44899711
   0.50108313  0.60297518  0.38465945
   0.49568970  0.43029786  0.36182649
   0.45244074  0.66959606  0.54851232
   0.44226693  0.32690474  0.50393688
   0.55834725  0.66624815  0.54696284
   0.54815908  0.32428657  0.50178617
   0.50424103  0.68083912  0.45617094
   0.49392228  0.33676946  0.41103307
 
 position of ions in cartesian coordinates  (Angst):
   8.01536418 11.50572451 13.61052371
  10.43136377 11.43107824 13.65024201
  12.92004685 11.36120606 13.60619716
  15.33959764 11.30034614 13.50029192
   9.12958989 11.74477480 11.48738154
  11.65721846 11.67665121 11.48678027
  14.18355416 11.61271013 11.40340417
  10.40766465 11.98856196  9.35325340
  12.84761277 11.92405255  9.31183240
   9.22483651 13.58520290 13.20111382
   9.10088588  9.53572721 12.67837780
  11.73021346 13.54665605 13.28277151
  11.60612399  9.40439730 12.74669834
  14.23017970 13.44351141 13.12041650
  14.10766060  9.40092213 12.58971452
  10.40963642 13.87666367 11.05504054
  10.28002173  9.72981666 10.51882090
  13.01431225 13.81210272 11.00800179
  12.88463370  9.66688488 10.46545067
  11.67949793 14.05444900  8.96583607
  11.55378515 10.02959920  8.43363388
  10.54571648 15.60728204 12.78500123
  10.30858024  7.61966034 11.74601443
  13.01423875 15.52924717 12.74888513
  12.77676787  7.55863469 11.69588463
  11.75310384 15.86934094 10.63266199
  11.51258909  7.84959204  9.58056563
 


--------------------------------------------------------------------------------------------------------


 use parallel FFT for wavefunctions z direction half grid
 k-point  1 :   0.0000 0.0000 0.0000  plane waves:   73063

 maximum and minimum number of plane-waves per node :     12180    12174

 maximum number of plane-waves:     73063
 maximum index in each direction: 
   IXMAX=   32   IYMAX=   32   IZMAX=   32
   IXMIN=  -32   IYMIN=  -32   IZMIN=    0

 WARNING: aliasing errors must be expected set NGX to 130 to avoid them
 WARNING: aliasing errors must be expected set NGY to 130 to avoid them
 WARNING: aliasing errors must be expected set NGZ to 130 to avoid them
 aliasing errors are usually negligible using standard VASP settings
 and one can safely disregard these warnings

 parallel 3D FFT for wavefunctions:
    minimum data exchange during FFTs selected (reduces bandwidth)
 parallel 3D FFT for charge:
    minimum data exchange during FFTs selected (reduces bandwidth)


 total amount of memory used by VASP on root node   111813. kBytes
========================================================================

   base      :      30000. kBytes
   nonl-proj :       7015. kBytes
   fftplans  :      14999. kBytes
   grid      :      38205. kBytes
   one-center:         77. kBytes
   wavefun   :      21517. kBytes
 
     INWAV:  cpu time    0.0000: real time    0.0003
 Broyden mixing: mesh for mixing (old mesh)
   NGX = 65   NGY = 65   NGZ = 65
  (NGX  =196   NGY  =196   NGZ  =196)
  gives a total of 274625 points

 initial charge density was supplied:
 charge density of overlapping atoms calculated
 number of electron     297.0000000 magnetization      81.0000000
 keeping initial charge density in first step


--------------------------------------------------------------------------------------------------------


 Maximum index for augmentation-charges          196 (set IRDMAX)


--------------------------------------------------------------------------------------------------------


 First call to EWALD:  gamma=   0.076
 Maximum number of real-space cells 3x 3x 3
 Maximum number of reciprocal cells 3x 3x 3

 FEWALD executed in parallel
    FEWALD:  cpu time    0.0021: real time    0.0021


----------------------------------------- Iteration    1(   1)  ---------------------------------------


    POTLOK:  cpu time    0.5713: real time    0.5717
    SETDIJ:  cpu time    0.0152: real time    0.0158
     EDDAV:  cpu time    7.9625: real time    7.9752
       DOS:  cpu time    0.0002: real time    0.0002
    --------------------------------------------
      LOOP:  cpu time    8.5526: real time    8.5905

 eigenvalue-minimisations  :   880
 total energy-change (2. order) : 0.1959197E+04  (-0.5875120E+04)
 number of electron     297.0000000 magnetization      81.0000000
 augmentation part      297.0000000 magnetization      81.0000000

 Free energy of the ion-electron system (eV)
  ---------------------------------------------------
  alpha Z        PSCENC =        42.10140450
  Ewald energy   TEWEN  =     80036.21421543
  -Hartree energ DENC   =   -114252.87218333
  -exchange      EXHF   =         0.00000000
  -V(xc)+E(xc)   XCENC  =      1244.00089562
  PAW double counting   =     33134.86385467   -35988.18867513
  entropy T*S    EENTRO =         0.00000000
  eigenvalues    EBANDS =       187.81625717
  atomic energy  EATOM  =     37555.26078576
  Solvation  Ediel_sol  =         0.00000000
  ---------------------------------------------------
  free energy    TOTEN  =      1959.19655470 eV

  energy without entropy =     1959.19655470  energy(sigma->0) =     1959.19655470


--------------------------------------------------------------------------------------------------------




----------------------------------------- Iteration    1(   2)  ---------------------------------------


     EDDAV:  cpu time    8.3611: real time    8.3736
       DOS:  cpu time    0.0001: real time    0.0001
    --------------------------------------------
      LOOP:  cpu time    8.3637: real time    8.3788

 eigenvalue-minimisations  :   936
 total energy-change (2. order) :-0.1793091E+04  (-0.1576801E+04)
 number of electron     297.0000000 magnetization      81.0000000
 augmentation part      297.0000000 magnetization      81.0000000

 Free energy of the ion-electron system (eV)
  ---------------------------------------------------
  alpha Z        PSCENC =        42.10140450
  Ewald energy   TEWEN  =     80036.21421543
  -Hartree energ DENC   =   -114252.87218333
  -exchange      EXHF   =         0.00000000
  -V(xc)+E(xc)   XCENC  =      1244.00089562
  PAW double counting   =     33134.86385467   -35988.18867513
  entropy T*S    EENTRO =         0.00000000
  eigenvalues    EBANDS =     -1605.27426090
  atomic energy  EATOM  =     37555.26078576
  Solvation  Ediel_sol  =         0.00000000
  ---------------------------------------------------
  free energy    TOTEN  =       166.10603663 eV

  energy without entropy =      166.10603663  energy(sigma->0) =      166.10603663


--------------------------------------------------------------------------------------------------------




----------------------------------------- Iteration    1(   3)  ---------------------------------------


     EDDAV:  cpu time    9.3055: real time    9.3165
       DOS:  cpu time    0.0001: real time    0.0001
    --------------------------------------------
      LOOP:  cpu time    9.3080: real time    9.3215

 eigenvalue-minimisations  :  1072
 total energy-change (2. order) :-0.2038391E+03  (-0.1912871E+03)
 number of electron     297.0000000 magnetization      81.0000000
 augmentation part      297.0000000 magnetization      81.0000000

 Free energy of the ion-electron system (eV)
  ---------------------------------------------------
  alpha Z        PSCENC =        42.10140450
  Ewald energy   TEWEN  =     80036.21421543
  -Hartree energ DENC   =   -114252.87218333
  -exchange      EXHF   =         0.00000000
  -V(xc)+E(xc)   XCENC  =      1244.00089562
  PAW double counting   =     33134.86385467   -35988.18867513
  entropy T*S    EENTRO =         0.00000000
  eigenvalues    EBANDS =     -1809.11333011
  atomic energy  EATOM  =     37555.26078576
  Solvation  Ediel_sol  =         0.00000000
  ---------------------------------------------------
  free energy    TOTEN  =       -37.73303257 eV

  energy without entropy =      -37.73303257  energy(sigma->0) =      -37.73303257


--------------------------------------------------------------------------------------------------------




----------------------------------------- Iteration    1(   4)  ---------------------------------------


     EDDAV:  cpu time    9.6683: real time    9.6808
       DOS:  cpu time    0.0002: real time    0.0002
    --------------------------------------------
      LOOP:  cpu time    9.6707: real time    9.6861

 eigenvalue-minimisations  :  1120
 total energy-change (2. order) :-0.1572355E+02  (-0.1476437E+02)
 number of electron     297.0000000 magnetization      81.0000000
 augmentation part      297.0000000 magnetization      81.0000000

 Free energy of the ion-electron system (eV)
  ---------------------------------------------------
  alpha Z        PSCENC =        42.10140450
  Ewald energy   TEWEN  =     80036.21421543
  -Hartree energ DENC   =   -114252.87218333
  -exchange      EXHF   =         0.00000000
  -V(xc)+E(xc)   XCENC  =      1244.00089562
  PAW double counting   =     33134.86385467   -35988.18867513
  entropy T*S    EENTRO =        -0.00000000
  eigenvalues    EBANDS =     -1824.83688040
  atomic energy  EATOM  =     37555.26078576
  Solvation  Ediel_sol  =         0.00000000
  ---------------------------------------------------
  free energy    TOTEN  =       -53.45658287 eV

  energy without entropy =      -53.45658287  energy(sigma->0) =      -53.45658287


--------------------------------------------------------------------------------------------------------




----------------------------------------- Iteration    1(   5)  ---------------------------------------


     EDDAV:  cpu time    9.6843: real time    9.6961
       DOS:  cpu time    0.0001: real time    0.0001
    CHARGE:  cpu time    0.3492: real time    0.3498
    MIXING:  cpu time    0.0130: real time    0.0131
    --------------------------------------------
      LOOP:  cpu time   10.0492: real time   10.0644

 eigenvalue-minimisations  :  1128
 total energy-change (2. order) :-0.5019514E+00  (-0.5002328E+00)
 number of electron     297.0000552 magnetization      31.4000095
 augmentation part      174.4728790 magnetization      26.8906010

 Broyden mixing:
  rms(total) = 0.90954E+01    rms(broyden)= 0.90934E+01
  rms(prec ) = 0.91991E+01
  weight for this iteration     100.00

 Free energy of the ion-electron system (eV)
  ---------------------------------------------------
  alpha Z        PSCENC =        42.10140450
  Ewald energy   TEWEN  =     80036.21421543
  -Hartree energ DENC   =   -114252.87218333
  -exchange      EXHF   =         0.00000000
  -V(xc)+E(xc)   XCENC  =      1244.00089562
  PAW double counting   =     33134.86385467   -35988.18867513
  entropy T*S    EENTRO =        -0.00000000
  eigenvalues    EBANDS =     -1825.33883180
  atomic energy  EATOM  =     37555.26078576
  Solvation  Ediel_sol  =         0.00000000
  ---------------------------------------------------
  free energy    TOTEN  =       -53.95853427 eV

  energy without entropy =      -53.95853427  energy(sigma->0) =      -53.95853427


--------------------------------------------------------------------------------------------------------




----------------------------------------- Iteration    1(   6)  ---------------------------------------


    POTLOK:  cpu time    0.5681: real time    0.5682
    SETDIJ:  cpu time    0.0140: real time    0.0144
    EDDIAG:  cpu time    1.0224: real time    1.0250
  RMM-DIIS:  cpu time    6.5541: real time    6.5612
    ORTHCH:  cpu time    0.0961: real time    0.0962
       DOS:  cpu time    0.0001: real time    0.0001
    CHARGE:  cpu time    0.3442: real time    0.3443
    MIXING:  cpu time    0.0140: real time    0.0140
    --------------------------------------------
      LOOP:  cpu time    8.6166: real time    8.6298

 eigenvalue-minimisations  :   882
 total energy-change (2. order) :-0.1923994E+02  (-0.1080656E+02)
 number of electron     297.0000609 magnetization      -0.8947252
 augmentation part      192.8056468 magnetization       0.5923815

 Broyden mixing:
  rms(total) = 0.42588E+01    rms(broyden)= 0.42571E+01
  rms(prec ) = 0.42839E+01
  weight for this iteration     100.00

 eigenvalues of (default mixing * dielectric matrix)
  average eigenvalue GAMMA=   1.7023
  1.7023

 Free energy of the ion-electron system (eV)
  ---------------------------------------------------
  alpha Z        PSCENC =        42.10140450
  Ewald energy   TEWEN  =     80036.21421543
  -Hartree energ DENC   =   -113794.66967121
  -exchange      EXHF   =         0.00000000
  -V(xc)+E(xc)   XCENC  =      1199.50971897
  PAW double counting   =     33148.77405565   -35928.55125753
  entropy T*S    EENTRO =         0.00000000
  eigenvalues    EBANDS =     -2331.83772226
  atomic energy  EATOM  =     37555.26078576
  Solvation  Ediel_sol  =         0.00000000
  ---------------------------------------------------
  free energy    TOTEN  =       -73.19847068 eV

  energy without entropy =      -73.19847068  energy(sigma->0) =      -73.19847068


--------------------------------------------------------------------------------------------------------




----------------------------------------- Iteration    1(   7)  ---------------------------------------


    POTLOK:  cpu time    0.5712: real time    0.5717
    SETDIJ:  cpu time    0.0141: real time    0.0145
    EDDIAG:  cpu time    1.0239: real time    1.0254
  RMM-DIIS:  cpu time    6.6179: real time    6.6345
    ORTHCH:  cpu time    0.0945: real time    0.0946
       DOS:  cpu time    0.0002: real time    0.0002
    CHARGE:  cpu time    0.3405: real time    0.3411
    MIXING:  cpu time    0.0143: real time    0.0143
    --------------------------------------------
      LOOP:  cpu time    8.6803: real time    8.7030

 eigenvalue-minimisations  :   882
 total energy-change (2. order) :-0.3659282E+01  (-0.2254911E+01)
 number of electron     297.0000584 magnetization      -0.5179585
 augmentation part      189.6885812 magnetization      -0.6968290

 Broyden mixing:
  rms(total) = 0.53578E+00    rms(broyden)= 0.53491E+00
  rms(prec ) = 0.57364E+00
  weight for this iteration     100.00

 eigenvalues of (default mixing * dielectric matrix)
  average eigenvalue GAMMA=   1.1637
  0.8802  1.4471

 Free energy of the ion-electron system (eV)
  ---------------------------------------------------
  alpha Z        PSCENC =        42.10140450
  Ewald energy   TEWEN  =     80036.21421543
  -Hartree energ DENC   =   -114146.31190048
  -exchange      EXHF   =         0.00000000
  -V(xc)+E(xc)   XCENC  =      1199.53336477
  PAW double counting   =     33777.00677879   -36615.23565877
  entropy T*S    EENTRO =        -0.00000000
  eigenvalues    EBANDS =     -1925.42674272
  atomic energy  EATOM  =     37555.26078576
  Solvation  Ediel_sol  =         0.00000000
  ---------------------------------------------------
  free energy    TOTEN  =       -76.85775272 eV

  energy without entropy =      -76.85775272  energy(sigma->0) =      -76.85775272


--------------------------------------------------------------------------------------------------------




----------------------------------------- Iteration    1(   8)  ---------------------------------------


    POTLOK:  cpu time    0.5610: real time    0.5680
    SETDIJ:  cpu time    0.0138: real time    0.0139
    EDDIAG:  cpu time    1.0236: real time    1.0245
  RMM-DIIS:  cpu time    6.7997: real time    6.8079
    ORTHCH:  cpu time    0.0933: real time    0.0934
       DOS:  cpu time    0.0002: real time    0.0002
    CHARGE:  cpu time    0.3413: real time    0.3419
    MIXING:  cpu time    0.0151: real time    0.0151
    --------------------------------------------
      LOOP:  cpu time    8.8524: real time    8.8721

 eigenvalue-minimisations  :   893
 total energy-change (2. order) : 0.1058134E+00  (-0.3026536E+00)
 number of electron     297.0000590 magnetization       0.1917000
 augmentation part      190.0559669 magnetization      -0.4061718

 Broyden mixing:
  rms(total) = 0.26961E+00    rms(broyden)= 0.26944E+00
  rms(prec ) = 0.29410E+00
  weight for this iteration     100.00

 eigenvalues of (default mixing * dielectric matrix)
  average eigenvalue GAMMA=   1.0885
  1.4882  0.8886  0.8886

 Free energy of the ion-electron system (eV)
  ---------------------------------------------------
  alpha Z        PSCENC =        42.10140450
  Ewald energy   TEWEN  =     80036.21421543
  -Hartree energ DENC   =   -114159.70036047
  -exchange      EXHF   =         0.00000000
  -V(xc)+E(xc)   XCENC  =      1198.42279111
  PAW double counting   =     34026.83252529   -36875.92015515
  entropy T*S    EENTRO =         0.00000000
  eigenvalues    EBANDS =     -1899.96314582
  atomic energy  EATOM  =     37555.26078576
  Solvation  Ediel_sol  =         0.00000000
  ---------------------------------------------------
  free energy    TOTEN  =       -76.75193934 eV

  energy without entropy =      -76.75193934  energy(sigma->0) =      -76.75193934


--------------------------------------------------------------------------------------------------------




----------------------------------------- Iteration    1(   9)  ---------------------------------------


    POTLOK:  cpu time    0.5685: real time    0.5687
    SETDIJ:  cpu time    0.0138: real time    0.0138
    EDDIAG:  cpu time    1.0218: real time    1.0240
  RMM-DIIS:  cpu time    6.7888: real time    6.7986
    ORTHCH:  cpu time    0.0929: real time    0.0930
       DOS:  cpu time    0.0002: real time    0.0002
    CHARGE:  cpu time    0.3437: real time    0.3444
    MIXING:  cpu time    0.0160: real time    0.0160
    --------------------------------------------
      LOOP:  cpu time    8.8498: real time    8.8656

 eigenvalue-minimisations  :   921
 total energy-change (2. order) : 0.3974140E-01  (-0.3836705E-01)
 number of electron     297.0000588 magnetization       0.7322567
 augmentation part      190.2207837 magnetization      -0.0267503

 Broyden mixing:
  rms(total) = 0.20356E+00    rms(broyden)= 0.20352E+00
  rms(prec ) = 0.21816E+00
  weight for this iteration     100.00

 eigenvalues of (default mixing * dielectric matrix)
  average eigenvalue GAMMA=   1.1523
  1.7900  1.0967  1.0967  0.6256

 Free energy of the ion-electron system (eV)
  ---------------------------------------------------
  alpha Z        PSCENC =        42.10140450
  Ewald energy   TEWEN  =     80036.21421543
  -Hartree energ DENC   =   -114143.65862126
  -exchange      EXHF   =         0.00000000
  -V(xc)+E(xc)   XCENC  =      1197.88992409
  PAW double counting   =     34179.91146960   -37036.32017475
  entropy T*S    EENTRO =         0.00000000
  eigenvalues    EBANDS =     -1908.11120132
  atomic energy  EATOM  =     37555.26078576
  Solvation  Ediel_sol  =         0.00000000
  ---------------------------------------------------
  free energy    TOTEN  =       -76.71219794 eV

  energy without entropy =      -76.71219794  energy(sigma->0) =      -76.71219794


--------------------------------------------------------------------------------------------------------




----------------------------------------- Iteration    1(  10)  ---------------------------------------


    POTLOK:  cpu time    0.5665: real time    0.5669
    SETDIJ:  cpu time    0.0138: real time    0.0138
    EDDIAG:  cpu time    1.0221: real time    1.0235
  RMM-DIIS:  cpu time    6.4840: real time    6.4936
    ORTHCH:  cpu time    0.0964: real time    0.0966
       DOS:  cpu time    0.0001: real time    0.0001
    CHARGE:  cpu time    0.3490: real time    0.3494
    MIXING:  cpu time    0.0173: real time    0.0174
    --------------------------------------------
      LOOP:  cpu time    8.5537: real time    8.5685

 eigenvalue-minimisations  :   882
 total energy-change (2. order) : 0.5592242E-01  (-0.1234685E-01)
 number of electron     297.0000590 magnetization       1.1115549
 augmentation part      190.2369550 magnetization       0.2310089

 Broyden mixing:
  rms(total) = 0.13160E+00    rms(broyden)= 0.13158E+00
  rms(prec ) = 0.14079E+00
  weight for this iteration     100.00

 eigenvalues of (default mixing * dielectric matrix)
  average eigenvalue GAMMA=   1.2525
  2.5469  1.2714  1.0873  0.8220  0.5348

 Free energy of the ion-electron system (eV)
  ---------------------------------------------------
  alpha Z        PSCENC =        42.10140450
  Ewald energy   TEWEN  =     80036.21421543
  -Hartree energ DENC   =   -114139.02191139
  -exchange      EXHF   =         0.00000000
  -V(xc)+E(xc)   XCENC  =      1197.39229232
  PAW double counting   =     34393.84974318   -37261.39555491
  entropy T*S    EENTRO =         0.00000000
  eigenvalues    EBANDS =     -1901.05725042
  atomic energy  EATOM  =     37555.26078576
  Solvation  Ediel_sol  =         0.00000000
  ---------------------------------------------------
  free energy    TOTEN  =       -76.65627552 eV

  energy without entropy =      -76.65627552  energy(sigma->0) =      -76.65627552


--------------------------------------------------------------------------------------------------------




----------------------------------------- Iteration    1(  11)  ---------------------------------------


    POTLOK:  cpu time    0.5712: real time    0.5717
    SETDIJ:  cpu time    0.0140: real time    0.0145
    EDDIAG:  cpu time    1.0232: real time    1.0247
  RMM-DIIS:  cpu time    6.4781: real time    6.4869
    ORTHCH:  cpu time    0.0924: real time    0.0924
       DOS:  cpu time    0.0002: real time    0.0002
    CHARGE:  cpu time    0.3434: real time    0.3438
    MIXING:  cpu time    0.0177: real time    0.0177
    --------------------------------------------
      LOOP:  cpu time    8.5438: real time    8.5583

 eigenvalue-minimisations  :   881
 total energy-change (2. order) : 0.3668898E-01  (-0.8524407E-02)
 number of electron     297.0000590 magnetization       1.0106788
 augmentation part      190.2212638 magnetization       0.0357985

 Broyden mixing:
  rms(total) = 0.75075E-01    rms(broyden)= 0.75064E-01
  rms(prec ) = 0.78944E-01
  weight for this iteration     100.00

 eigenvalues of (default mixing * dielectric matrix)
  average eigenvalue GAMMA=   1.2867
  2.8320  1.3643  1.3643  0.8094  0.8094  0.5406

 Free energy of the ion-electron system (eV)
  ---------------------------------------------------
  alpha Z        PSCENC =        42.10140450
  Ewald energy   TEWEN  =     80036.21421543
  -Hartree energ DENC   =   -114134.42321778
  -exchange      EXHF   =         0.00000000
  -V(xc)+E(xc)   XCENC  =      1196.72489481
  PAW double counting   =     34701.48013922   -37585.14664892
  entropy T*S    EENTRO =         0.00000000
  eigenvalues    EBANDS =     -1888.83115958
  atomic energy  EATOM  =     37555.26078576
  Solvation  Ediel_sol  =         0.00000000
  ---------------------------------------------------
  free energy    TOTEN  =       -76.61958654 eV

  energy without entropy =      -76.61958654  energy(sigma->0) =      -76.61958654


--------------------------------------------------------------------------------------------------------




----------------------------------------- Iteration    1(  12)  ---------------------------------------


    POTLOK:  cpu time    0.5705: real time    0.5706
    SETDIJ:  cpu time    0.0139: real time    0.0139
    EDDIAG:  cpu time    1.0229: real time    1.0242
  RMM-DIIS:  cpu time    6.9905: real time    6.9965
    ORTHCH:  cpu time    0.0937: real time    0.0938
       DOS:  cpu time    0.0002: real time    0.0002
    CHARGE:  cpu time    0.3404: real time    0.3410
    MIXING:  cpu time    0.0189: real time    0.0189
    --------------------------------------------
      LOOP:  cpu time    9.0552: real time    9.0662

 eigenvalue-minimisations  :   889
 total energy-change (2. order) : 0.3000534E-02  (-0.1197598E-02)
 number of electron     297.0000590 magnetization       0.9361403
 augmentation part      190.2341282 magnetization      -0.0213079

 Broyden mixing:
  rms(total) = 0.49915E-01    rms(broyden)= 0.49910E-01
  rms(prec ) = 0.52975E-01
  weight for this iteration     100.00

 eigenvalues of (default mixing * dielectric matrix)
  average eigenvalue GAMMA=   1.4909
  4.3162  1.7779  1.3236  0.9134  0.9134  0.6726  0.5188

 Free energy of the ion-electron system (eV)
  ---------------------------------------------------
  alpha Z        PSCENC =        42.10140450
  Ewald energy   TEWEN  =     80036.21421543
  -Hartree energ DENC   =   -114133.51413416
  -exchange      EXHF   =         0.00000000
  -V(xc)+E(xc)   XCENC  =      1196.51610510
  PAW double counting   =     34780.85179636   -37668.54395400
  entropy T*S    EENTRO =         0.00000000
  eigenvalues    EBANDS =     -1885.50280501
  atomic energy  EATOM  =     37555.26078576
  Solvation  Ediel_sol  =         0.00000000
  ---------------------------------------------------
  free energy    TOTEN  =       -76.61658601 eV

  energy without entropy =      -76.61658601  energy(sigma->0) =      -76.61658601


--------------------------------------------------------------------------------------------------------




----------------------------------------- Iteration    1(  13)  ---------------------------------------


    POTLOK:  cpu time    0.5682: real time    0.5698
    SETDIJ:  cpu time    0.0138: real time    0.0138
    EDDIAG:  cpu time    1.0217: real time    1.0230
  RMM-DIIS:  cpu time    6.6517: real time    6.6598
    ORTHCH:  cpu time    0.0922: real time    0.0922
       DOS:  cpu time    0.0002: real time    0.0002
    CHARGE:  cpu time    0.3401: real time    0.3405
    MIXING:  cpu time    0.0204: real time    0.0204
    --------------------------------------------
      LOOP:  cpu time    8.7123: real time    8.7267

 eigenvalue-minimisations  :   882
 total energy-change (2. order) : 0.1394895E-02  (-0.8581642E-03)
 number of electron     297.0000590 magnetization       0.9586001
 augmentation part      190.2452715 magnetization       0.0312985

 Broyden mixing:
  rms(total) = 0.24880E-01    rms(broyden)= 0.24869E-01
  rms(prec ) = 0.30655E-01
  weight for this iteration     100.00

 eigenvalues of (default mixing * dielectric matrix)
  average eigenvalue GAMMA=   1.4195
  4.5773  1.8039  1.3156  0.9603  0.9603  0.7198  0.5219  0.4966

 Free energy of the ion-electron system (eV)
  ---------------------------------------------------
  alpha Z        PSCENC =        42.10140450
  Ewald energy   TEWEN  =     80036.21421543
  -Hartree energ DENC   =   -114133.74504663
  -exchange      EXHF   =         0.00000000
  -V(xc)+E(xc)   XCENC  =      1196.15766944
  PAW double counting   =     34916.13579784   -37810.79445584
  entropy T*S    EENTRO =         0.00000000
  eigenvalues    EBANDS =     -1877.94556162
  atomic energy  EATOM  =     37555.26078576
  Solvation  Ediel_sol  =         0.00000000
  ---------------------------------------------------
  free energy    TOTEN  =       -76.61519111 eV

  energy without entropy =      -76.61519111  energy(sigma->0) =      -76.61519111


--------------------------------------------------------------------------------------------------------




----------------------------------------- Iteration    1(  14)  ---------------------------------------


    POTLOK:  cpu time    0.5694: real time    0.5699
    SETDIJ:  cpu time    0.0139: real time    0.0139
    EDDIAG:  cpu time    1.0215: real time    1.0243
  RMM-DIIS:  cpu time    6.5022: real time    6.5089
    ORTHCH:  cpu time    0.0923: real time    0.0924
       DOS:  cpu time    0.0002: real time    0.0002
    CHARGE:  cpu time    0.3431: real time    0.3436
    MIXING:  cpu time    0.0224: real time    0.0224
    --------------------------------------------
      LOOP:  cpu time    8.5691: real time    8.5822

 eigenvalue-minimisations  :   882
 total energy-change (2. order) : 0.1673773E-02  (-0.2312431E-03)
 number of electron     297.0000590 magnetization       0.9883957
 augmentation part      190.2571095 magnetization       0.0653371

 Broyden mixing:
  rms(total) = 0.10604E-01    rms(broyden)= 0.10590E-01
  rms(prec ) = 0.11949E-01
  weight for this iteration     100.00

 eigenvalues of (default mixing * dielectric matrix)
  average eigenvalue GAMMA=   1.4127
  4.6670  1.9637  1.3071  1.2897  0.8997  0.8997  0.7282  0.5277  0.4316

 Free energy of the ion-electron system (eV)
  ---------------------------------------------------
  alpha Z        PSCENC =        42.10140450
  Ewald energy   TEWEN  =     80036.21421543
  -Hartree energ DENC   =   -114131.85084786
  -exchange      EXHF   =         0.00000000
  -V(xc)+E(xc)   XCENC  =      1196.06237588
  PAW double counting   =     34946.93271196   -37843.21363585
  entropy T*S    EENTRO =         0.00000000
  eigenvalues    EBANDS =     -1878.12052717
  atomic energy  EATOM  =     37555.26078576
  Solvation  Ediel_sol  =         0.00000000
  ---------------------------------------------------
  free energy    TOTEN  =       -76.61351734 eV

  energy without entropy =      -76.61351734  energy(sigma->0) =      -76.61351734


--------------------------------------------------------------------------------------------------------




----------------------------------------- Iteration    1(  15)  ---------------------------------------


    POTLOK:  cpu time    0.5689: real time    0.5691
    SETDIJ:  cpu time    0.0139: real time    0.0139
    EDDIAG:  cpu time    1.0215: real time    1.0235
  RMM-DIIS:  cpu time    6.7371: real time    6.7449
    ORTHCH:  cpu time    0.0927: real time    0.0927
       DOS:  cpu time    0.0002: real time    0.0002
    CHARGE:  cpu time    0.3444: real time    0.3450
    MIXING:  cpu time    0.0242: real time    0.0242
    --------------------------------------------
      LOOP:  cpu time    8.8071: real time    8.8207

 eigenvalue-minimisations  :   880
 total energy-change (2. order) : 0.1972233E-03  (-0.4106816E-04)
 number of electron     297.0000590 magnetization       1.0047190
 augmentation part      190.2656726 magnetization       0.0821668

 Broyden mixing:
  rms(total) = 0.68409E-02    rms(broyden)= 0.68395E-02
  rms(prec ) = 0.74419E-02
  weight for this iteration     100.00

 eigenvalues of (default mixing * dielectric matrix)
  average eigenvalue GAMMA=   1.4385
  4.7326  2.3575  1.5222  1.3175  1.0346  1.0346  0.7960  0.6372  0.5249  0.4276

 Free energy of the ion-electron system (eV)
  ---------------------------------------------------
  alpha Z        PSCENC =        42.10140450
  Ewald energy   TEWEN  =     80036.21421543
  -Hartree energ DENC   =   -114129.37918041
  -exchange      EXHF   =         0.00000000
  -V(xc)+E(xc)   XCENC  =      1196.01985261
  PAW double counting   =     34957.62065129   -37854.56158416
  entropy T*S    EENTRO =         0.00000000
  eigenvalues    EBANDS =     -1879.88946514
  atomic energy  EATOM  =     37555.26078576
  Solvation  Ediel_sol  =         0.00000000
  ---------------------------------------------------
  free energy    TOTEN  =       -76.61332011 eV

  energy without entropy =      -76.61332011  energy(sigma->0) =      -76.61332011


--------------------------------------------------------------------------------------------------------




----------------------------------------- Iteration    1(  16)  ---------------------------------------


    POTLOK:  cpu time    0.5694: real time    0.5699
    SETDIJ:  cpu time    0.0139: real time    0.0139
    EDDIAG:  cpu time    1.0230: real time    1.0239
  RMM-DIIS:  cpu time    6.5888: real time    6.5969
    ORTHCH:  cpu time    0.0943: real time    0.0949
       DOS:  cpu time    0.0002: real time    0.0002
    CHARGE:  cpu time    0.3466: real time    0.3467
    MIXING:  cpu time    0.0268: real time    0.0268
    --------------------------------------------
      LOOP:  cpu time    8.6671: real time    8.6802

 eigenvalue-minimisations  :   882
 total energy-change (2. order) : 0.1054188E-03  (-0.3317130E-04)
 number of electron     297.0000590 magnetization       0.9987148
 augmentation part      190.2588120 magnetization       0.0742050

 Broyden mixing:
  rms(total) = 0.37046E-02    rms(broyden)= 0.37034E-02
  rms(prec ) = 0.39132E-02
  weight for this iteration     100.00

 eigenvalues of (default mixing * dielectric matrix)
  average eigenvalue GAMMA=   1.5118
  4.8994  3.3734  1.7851  1.2554  1.0213  1.0213  0.9547  0.7731  0.5971  0.5229
  0.4256

 Free energy of the ion-electron system (eV)
  ---------------------------------------------------
  alpha Z        PSCENC =        42.10140450
  Ewald energy   TEWEN  =     80036.21421543
  -Hartree energ DENC   =   -114128.62373751
  -exchange      EXHF   =         0.00000000
  -V(xc)+E(xc)   XCENC  =      1196.00624099
  PAW double counting   =     34964.51198086   -37862.00507959
  entropy T*S    EENTRO =         0.00000000
  eigenvalues    EBANDS =     -1880.07902515
  atomic energy  EATOM  =     37555.26078576
  Solvation  Ediel_sol  =         0.00000000
  ---------------------------------------------------
  free energy    TOTEN  =       -76.61321470 eV

  energy without entropy =      -76.61321470  energy(sigma->0) =      -76.61321470


--------------------------------------------------------------------------------------------------------




----------------------------------------- Iteration    1(  17)  ---------------------------------------


    POTLOK:  cpu time    0.5727: real time    0.5732
    SETDIJ:  cpu time    0.0141: real time    0.0145
    EDDIAG:  cpu time    1.0220: real time    1.0237
  RMM-DIIS:  cpu time    6.5869: real time    6.5951
    ORTHCH:  cpu time    0.0934: real time    0.0935
       DOS:  cpu time    0.0002: real time    0.0002
    CHARGE:  cpu time    0.3429: real time    0.3435
    MIXING:  cpu time    0.0298: real time    0.0298
    --------------------------------------------
      LOOP:  cpu time    8.6658: real time    8.6795

 eigenvalue-minimisations  :   888
 total energy-change (2. order) :-0.7118055E-05  (-0.1907291E-04)
 number of electron     297.0000590 magnetization       0.9979355
 augmentation part      190.2574015 magnetization       0.0725598

 Broyden mixing:
  rms(total) = 0.15512E-02    rms(broyden)= 0.15502E-02
  rms(prec ) = 0.16535E-02
  weight for this iteration     100.00

 eigenvalues of (default mixing * dielectric matrix)
  average eigenvalue GAMMA=   1.5161
  4.9595  3.4119  1.9481  1.3067  1.3067  1.0806  1.0123  0.7947  0.7947  0.6291
  0.5231  0.4252

 Free energy of the ion-electron system (eV)
  ---------------------------------------------------
  alpha Z        PSCENC =        42.10140450
  Ewald energy   TEWEN  =     80036.21421543
  -Hartree energ DENC   =   -114127.87703715
  -exchange      EXHF   =         0.00000000
  -V(xc)+E(xc)   XCENC  =      1195.99320813
  PAW double counting   =     34968.13072023   -37865.94671897
  entropy T*S    EENTRO =         0.00000000
  eigenvalues    EBANDS =     -1880.48979975
  atomic energy  EATOM  =     37555.26078576
  Solvation  Ediel_sol  =         0.00000000
  ---------------------------------------------------
  free energy    TOTEN  =       -76.61322181 eV

  energy without entropy =      -76.61322181  energy(sigma->0) =      -76.61322181


--------------------------------------------------------------------------------------------------------




----------------------------------------- Iteration    1(  18)  ---------------------------------------


    POTLOK:  cpu time    0.5702: real time    0.5709
    SETDIJ:  cpu time    0.0138: real time    0.0138
    EDDIAG:  cpu time    1.1509: real time    1.4504
  RMM-DIIS:  cpu time    6.3040: real time    6.3308
    ORTHCH:  cpu time    0.0926: real time    0.0926
       DOS:  cpu time    0.0002: real time    0.0002
    CHARGE:  cpu time    0.3427: real time    0.3435
    MIXING:  cpu time    0.0315: real time    0.0315
    --------------------------------------------
      LOOP:  cpu time    8.5099: real time    8.8405

 eigenvalue-minimisations  :   885
 total energy-change (2. order) :-0.6047630E-06  (-0.2588662E-05)
 number of electron     297.0000590 magnetization       0.9999400
 augmentation part      190.2575645 magnetization       0.0736913

 Broyden mixing:
  rms(total) = 0.82836E-03    rms(broyden)= 0.82807E-03
  rms(prec ) = 0.89758E-03
  weight for this iteration     100.00

 eigenvalues of (default mixing * dielectric matrix)
  average eigenvalue GAMMA=   1.4952
  4.9206  3.3210  2.2874  1.6788  1.2514  1.0622  1.0088  0.8828  0.7654  0.6825
  0.6281  0.5236  0.4253

 Free energy of the ion-electron system (eV)
  ---------------------------------------------------
  alpha Z        PSCENC =        42.10140450
  Ewald energy   TEWEN  =     80036.21421543
  -Hartree energ DENC   =   -114127.92927168
  -exchange      EXHF   =         0.00000000
  -V(xc)+E(xc)   XCENC  =      1195.99146001
  PAW double counting   =     34968.11465396   -37865.94660840
  entropy T*S    EENTRO =         0.00000000
  eigenvalues    EBANDS =     -1880.41986201
  atomic energy  EATOM  =     37555.26078576
  Solvation  Ediel_sol  =         0.00000000
  ---------------------------------------------------
  free energy    TOTEN  =       -76.61322242 eV

  energy without entropy =      -76.61322242  energy(sigma->0) =      -76.61322242


--------------------------------------------------------------------------------------------------------




----------------------------------------- Iteration    1(  19)  ---------------------------------------


    POTLOK:  cpu time    0.5695: real time    0.5701
    SETDIJ:  cpu time    0.0140: real time    0.0140
    EDDIAG:  cpu time    1.0210: real time    1.0225
  RMM-DIIS:  cpu time    6.3405: real time    6.3496
    ORTHCH:  cpu time    0.0936: real time    0.0936
       DOS:  cpu time    0.0002: real time    0.0002
    CHARGE:  cpu time    0.3450: real time    0.3452
    MIXING:  cpu time    0.0351: real time    0.0352
    --------------------------------------------
      LOOP:  cpu time    8.4230: real time    8.4374

 eigenvalue-minimisations  :   856
 total energy-change (2. order) : 0.1926623E-05  (-0.6735586E-06)
 number of electron     297.0000590 magnetization       1.0007889
 augmentation part      190.2584380 magnetization       0.0743920

 Broyden mixing:
  rms(total) = 0.52416E-03    rms(broyden)= 0.52397E-03
  rms(prec ) = 0.55674E-03
  weight for this iteration     100.00

 eigenvalues of (default mixing * dielectric matrix)
  average eigenvalue GAMMA=   1.4817
  4.8726  3.3913  2.4773  1.7556  1.1960  1.1960  0.9534  0.9534  0.8776  0.8256
  0.4253  0.5232  0.6054  0.6910

 Free energy of the ion-electron system (eV)
  ---------------------------------------------------
  alpha Z        PSCENC =        42.10140450
  Ewald energy   TEWEN  =     80036.21421543
  -Hartree energ DENC   =   -114127.93467127
  -exchange      EXHF   =         0.00000000
  -V(xc)+E(xc)   XCENC  =      1195.99153656
  PAW double counting   =     34967.52294720   -37865.32464380
  entropy T*S    EENTRO =         0.00000000
  eigenvalues    EBANDS =     -1880.44479489
  atomic energy  EATOM  =     37555.26078576
  Solvation  Ediel_sol  =         0.00000000
  ---------------------------------------------------
  free energy    TOTEN  =       -76.61322049 eV

  energy without entropy =      -76.61322049  energy(sigma->0) =      -76.61322049


--------------------------------------------------------------------------------------------------------




----------------------------------------- Iteration    1(  20)  ---------------------------------------


    POTLOK:  cpu time    0.5692: real time    0.5700
    SETDIJ:  cpu time    0.0139: real time    0.0139
    EDDIAG:  cpu time    1.0209: real time    1.0226
  RMM-DIIS:  cpu time    4.3308: real time    4.3368
    ORTHCH:  cpu time    0.0932: real time    0.0932
       DOS:  cpu time    0.0001: real time    0.0001
    --------------------------------------------
      LOOP:  cpu time    6.0322: real time    6.0437

 eigenvalue-minimisations  :   578
 total energy-change (2. order) : 0.5805559E-06  (-0.1400555E-06)
 number of electron     297.0000590 magnetization       1.0007889
 augmentation part      190.2584380 magnetization       0.0743920

 Free energy of the ion-electron system (eV)
  ---------------------------------------------------
  alpha Z        PSCENC =        42.10140450
  Ewald energy   TEWEN  =     80036.21421543
  -Hartree energ DENC   =   -114127.91749680
  -exchange      EXHF   =         0.00000000
  -V(xc)+E(xc)   XCENC  =      1195.99228660
  PAW double counting   =     34967.08351488   -37864.87118312
  entropy T*S    EENTRO =         0.00000000
  eigenvalues    EBANDS =     -1880.47674717
  atomic energy  EATOM  =     37555.26078576
  Solvation  Ediel_sol  =         0.00000000
  ---------------------------------------------------
  free energy    TOTEN  =       -76.61321991 eV

  energy without entropy =      -76.61321991  energy(sigma->0) =      -76.61321991


--------------------------------------------------------------------------------------------------------




 average (electrostatic) potential at core
  the test charge radii are     0.9430
  (the norm of the test charge is              1.0000)
       1 -74.6052       2 -74.8346       3 -74.8404       4 -74.6038       5 -74.8381
       6 -74.9895       7 -74.8386       8 -74.7493       9 -74.7481      10 -74.6358
      11 -74.6372      12 -74.7955      13 -74.7928      14 -74.6436      15 -74.6439
      16 -74.8151      17 -74.8149      18 -74.8113      19 -74.8132      20 -74.5848
      21 -74.5819      22 -74.4935      23 -74.4977      24 -74.4967      25 -74.4989
      26 -74.5104      27 -74.5127
 
 
 
 E-fermi :  -3.5018     XC(G=0):  -0.6707     alpha+bet : -0.3380


 spin component 1

 k-point     1 :       0.0000    0.0000    0.0000
  band No.  band energies     occupation 
      1     -11.3759      1.00000
      2     -10.1590      1.00000
      3      -9.7425      1.00000
      4      -9.5226      1.00000
      5      -9.0161      1.00000
      6      -8.5560      1.00000
      7      -8.5260      1.00000
      8      -8.4325      1.00000
      9      -8.2456      1.00000
     10      -8.1706      1.00000
     11      -8.0573      1.00000
     12      -7.8591      1.00000
     13      -7.8579      1.00000
     14      -7.8242      1.00000
     15      -7.7587      1.00000
     16      -7.7418      1.00000
     17      -7.7386      1.00000
     18      -7.6741      1.00000
     19      -7.5877      1.00000
     20      -7.5726      1.00000
     21      -7.4602      1.00000
     22      -7.3823      1.00000
     23      -7.3171      1.00000
     24      -7.2887      1.00000
     25      -7.2321      1.00000
     26      -7.1934      1.00000
     27      -7.1866      1.00000
     28      -7.1800      1.00000
     29      -7.1636      1.00000
     30      -7.1006      1.00000
     31      -7.0908      1.00000
     32      -7.0781      1.00000
     33      -7.0497      1.00000
     34      -6.9389      1.00000
     35      -6.9269      1.00000
     36      -6.9151      1.00000
     37      -6.9087      1.00000
     38      -6.9063      1.00000
     39      -6.8604      1.00000
     40      -6.8550      1.00000
     41      -6.8541      1.00000
     42      -6.8319      1.00000
     43      -6.7882      1.00000
     44      -6.7453      1.00000
     45      -6.6984      1.00000
     46      -6.6665      1.00000
     47      -6.6533      1.00000
     48      -6.6352      1.00000
     49      -6.6331      1.00000
     50      -6.6253      1.00000
     51      -6.6129      1.00000
     52      -6.6016      1.00000
     53      -6.5843      1.00000
     54      -6.5338      1.00000
     55      -6.5041      1.00000
     56      -6.4888      1.00000
     57      -6.4524      1.00000
     58      -6.4394      1.00000
     59      -6.4244      1.00000
     60      -6.4045      1.00000
     61      -6.3940      1.00000
     62      -6.3761      1.00000
     63      -6.3518      1.00000
     64      -6.3325      1.00000
     65      -6.2989      1.00000
     66      -6.2739      1.00000
     67      -6.2653      1.00000
     68      -6.2549      1.00000
     69      -6.2532      1.00000
     70      -6.1890      1.00000
     71      -6.1656      1.00000
     72      -6.1556      1.00000
     73      -6.1536      1.00000
     74      -6.1392      1.00000
     75      -6.1314      1.00000
     76      -6.1048      1.00000
     77      -6.0986      1.00000
     78      -6.0638      1.00000
     79      -6.0050      1.00000
     80      -5.9872      1.00000
     81      -5.9838      1.00000
     82      -5.9662      1.00000
     83      -5.9633      1.00000
     84      -5.9567      1.00000
     85      -5.9320      1.00000
     86      -5.9176      1.00000
     87      -5.9061      1.00000
     88      -5.8623      1.00000
     89      -5.8602      1.00000
     90      -5.8357      1.00000
     91      -5.8205      1.00000
     92      -5.8190      1.00000
     93      -5.8084      1.00000
     94      -5.8071      1.00000
     95      -5.8018      1.00000
     96      -5.7934      1.00000
     97      -5.7738      1.00000
     98      -5.7663      1.00000
     99      -5.7433      1.00000
    100      -5.7264      1.00000
    101      -5.6572      1.00000
    102      -5.6285      1.00000
    103      -5.6143      1.00000
    104      -5.6126      1.00000
    105      -5.5952      1.00000
    106      -5.5872      1.00000
    107      -5.5647      1.00000
    108      -5.5568      1.00000
    109      -5.5476      1.00000
    110      -5.5206      1.00000
    111      -5.5109      1.00000
    112      -5.4982      1.00000
    113      -5.4956      1.00000
    114      -5.4868      1.00000
    115      -5.4781      1.00000
    116      -5.4762      1.00000
    117      -5.4624      1.00000
    118      -5.4566      1.00000
    119      -5.4527      1.00000
    120      -5.4482      1.00000
    121      -5.4201      1.00000
    122      -5.4148      1.00000
    123      -5.4014      1.00000
    124      -5.3954      1.00000
    125      -5.3924      1.00000
    126      -5.3729      1.00000
    127      -5.3608      1.00000
    128      -5.3563      1.00000
    129      -5.3370      1.00000
    130      -5.3361      1.00000
    131      -5.2688      1.00000
    132      -5.2670      1.00000
    133      -5.2546      1.00000
    134      -5.2495      1.00000
    135      -5.2468      1.00000
    136      -5.2125      1.00000
    137      -5.2008      1.00000
    138      -5.1949      1.00000
    139      -5.1764      1.00000
    140      -5.1611      1.00000
    141      -5.1304      1.00000
    142      -5.1218      1.00000
    143      -5.0359      1.00000
    144      -4.8983      1.00000
    145      -4.8592      1.00000
    146      -4.5771      1.00000
    147      -4.3437      1.00000
    148      -4.2070      1.00000
    149      -3.5202      1.00000
    150      -3.4253      0.00000
    151      -3.3792      0.00000
    152      -3.2624      0.00000
    153      -3.2259      0.00000
    154      -3.0748      0.00000
    155      -2.8167      0.00000
    156      -2.7076      0.00000
    157      -2.6890      0.00000
    158      -2.5981      0.00000
    159      -1.9517      0.00000
    160      -1.8742      0.00000
    161      -1.7518      0.00000
    162      -1.7162      0.00000
    163      -1.6916      0.00000
    164      -1.5700      0.00000
    165      -1.3983      0.00000
    166      -1.0951      0.00000
    167      -0.9061      0.00000
    168      -0.8248      0.00000
    169      -0.6684      0.00000
    170      -0.6546      0.00000
    171      -0.5650      0.00000
    172      -0.4030      0.00000
    173      -0.1652      0.00000
    174      -0.0455      0.00000
    175      -0.0115      0.00000
    176       0.1113      0.00000
    177       0.2042      0.00000
    178       0.2947      0.00000
    179       0.3363      0.00000
    180       0.3399      0.00000
    181       0.3614      0.00000
    182       0.4228      0.00000
    183       0.4455      0.00000
    184       0.5024      0.00000
    185       0.5643      0.00000
    186       0.5701      0.00000
    187       0.6205      0.00000
    188       0.6375      0.00000
    189       0.6663      0.00000
    190       0.6803      0.00000
    191       0.6973      0.00000
    192       0.6986      0.00000
    193       0.7082      0.00000
    194       0.7295      0.00000
    195       0.7374      0.00000
    196       0.7544      0.00000
    197       0.7843      0.00000
    198       0.8358      0.00000
    199       0.8493      0.00000
    200       0.9148      0.00000
    201       0.9461      0.00000
    202       0.9561      0.00000
    203       0.9793      0.00000
    204       1.0029      0.00000
    205       1.0060      0.00000
    206       1.0261      0.00000
    207       1.0470      0.00000
    208       1.1158      0.00000
    209       1.1569      0.00000
    210       1.1651      0.00000
    211       1.2237      0.00000
    212       1.2414      0.00000
    213       1.2604      0.00000
    214       1.2835      0.00000
    215       1.3551      0.00000
    216       1.3706      0.00000
    217       1.4123      0.00000
    218       1.4299      0.00000
    219       1.4419      0.00000
    220       1.4736      0.00000

 spin component 2

 k-point     1 :       0.0000    0.0000    0.0000
  band No.  band energies     occupation 
      1     -11.3460      1.00000
      2     -10.1200      1.00000
      3      -9.7228      1.00000
      4      -9.5094      1.00000
      5      -8.9948      1.00000
      6      -8.5349      1.00000
      7      -8.5026      1.00000
      8      -8.4063      1.00000
      9      -8.2412      1.00000
     10      -8.1636      1.00000
     11      -8.0385      1.00000
     12      -7.8504      1.00000
     13      -7.8457      1.00000
     14      -7.8132      1.00000
     15      -7.7424      1.00000
     16      -7.7230      1.00000
     17      -7.7206      1.00000
     18      -7.6554      1.00000
     19      -7.5622      1.00000
     20      -7.5613      1.00000
     21      -7.4463      1.00000
     22      -7.3692      1.00000
     23      -7.3088      1.00000
     24      -7.2742      1.00000
     25      -7.2183      1.00000
     26      -7.1764      1.00000
     27      -7.1656      1.00000
     28      -7.1636      1.00000
     29      -7.1522      1.00000
     30      -7.0888      1.00000
     31      -7.0794      1.00000
     32      -7.0631      1.00000
     33      -7.0400      1.00000
     34      -6.9270      1.00000
     35      -6.9124      1.00000
     36      -6.9013      1.00000
     37      -6.8986      1.00000
     38      -6.8940      1.00000
     39      -6.8535      1.00000
     40      -6.8434      1.00000
     41      -6.8363      1.00000
     42      -6.8237      1.00000
     43      -6.7702      1.00000
     44      -6.7300      1.00000
     45      -6.6883      1.00000
     46      -6.6590      1.00000
     47      -6.6406      1.00000
     48      -6.6248      1.00000
     49      -6.6232      1.00000
     50      -6.6153      1.00000
     51      -6.6025      1.00000
     52      -6.5930      1.00000
     53      -6.5738      1.00000
     54      -6.5218      1.00000
     55      -6.4957      1.00000
     56      -6.4747      1.00000
     57      -6.4406      1.00000
     58      -6.4229      1.00000
     59      -6.4074      1.00000
     60      -6.3932      1.00000
     61      -6.3773      1.00000
     62      -6.3640      1.00000
     63      -6.3473      1.00000
     64      -6.3192      1.00000
     65      -6.2913      1.00000
     66      -6.2647      1.00000
     67      -6.2465      1.00000
     68      -6.2444      1.00000
     69      -6.2380      1.00000
     70      -6.1797      1.00000
     71      -6.1525      1.00000
     72      -6.1461      1.00000
     73      -6.1398      1.00000
     74      -6.1265      1.00000
     75      -6.1193      1.00000
     76      -6.0897      1.00000
     77      -6.0867      1.00000
     78      -6.0393      1.00000
     79      -5.9947      1.00000
     80      -5.9734      1.00000
     81      -5.9698      1.00000
     82      -5.9572      1.00000
     83      -5.9532      1.00000
     84      -5.9469      1.00000
     85      -5.9150      1.00000
     86      -5.9048      1.00000
     87      -5.8985      1.00000
     88      -5.8507      1.00000
     89      -5.8470      1.00000
     90      -5.8258      1.00000
     91      -5.8027      1.00000
     92      -5.8013      1.00000
     93      -5.7954      1.00000
     94      -5.7937      1.00000
     95      -5.7930      1.00000
     96      -5.7833      1.00000
     97      -5.7612      1.00000
     98      -5.7568      1.00000
     99      -5.7338      1.00000
    100      -5.7098      1.00000
    101      -5.6351      1.00000
    102      -5.6117      1.00000
    103      -5.6052      1.00000
    104      -5.5972      1.00000
    105      -5.5841      1.00000
    106      -5.5747      1.00000
    107      -5.5526      1.00000
    108      -5.5421      1.00000
    109      -5.5386      1.00000
    110      -5.5077      1.00000
    111      -5.4985      1.00000
    112      -5.4873      1.00000
    113      -5.4835      1.00000
    114      -5.4738      1.00000
    115      -5.4580      1.00000
    116      -5.4572      1.00000
    117      -5.4497      1.00000
    118      -5.4476      1.00000
    119      -5.4364      1.00000
    120      -5.4339      1.00000
    121      -5.4043      1.00000
    122      -5.4011      1.00000
    123      -5.3886      1.00000
    124      -5.3829      1.00000
    125      -5.3811      1.00000
    126      -5.3563      1.00000
    127      -5.3505      1.00000
    128      -5.3493      1.00000
    129      -5.3297      1.00000
    130      -5.3226      1.00000
    131      -5.2587      1.00000
    132      -5.2570      1.00000
    133      -5.2464      1.00000
    134      -5.2419      1.00000
    135      -5.2392      1.00000
    136      -5.2052      1.00000
    137      -5.1799      1.00000
    138      -5.1774      1.00000
    139      -5.1583      1.00000
    140      -5.1438      1.00000
    141      -5.1233      1.00000
    142      -5.1118      1.00000
    143      -4.9939      1.00000
    144      -4.8807      1.00000
    145      -4.8271      1.00000
    146      -4.5608      1.00000
    147      -4.3078      1.00000
    148      -4.1819      1.00000
    149      -3.3927      0.00000
    150      -3.3816      0.00000
    151      -3.3383      0.00000
    152      -3.2302      0.00000
    153      -3.1888      0.00000
    154      -3.0378      0.00000
    155      -2.7609      0.00000
    156      -2.6878      0.00000
    157      -2.6559      0.00000
    158      -2.5815      0.00000
    159      -1.9140      0.00000
    160      -1.7980      0.00000
    161      -1.7058      0.00000
    162      -1.6817      0.00000
    163      -1.5713      0.00000
    164      -1.5463      0.00000
    165      -1.3157      0.00000
    166      -1.0742      0.00000
    167      -0.8568      0.00000
    168      -0.7927      0.00000
    169      -0.6175      0.00000
    170      -0.5943      0.00000
    171      -0.5207      0.00000
    172      -0.3334      0.00000
    173      -0.1240      0.00000
    174      -0.0328      0.00000
    175       0.0329      0.00000
    176       0.1290      0.00000
    177       0.2271      0.00000
    178       0.3409      0.00000
    179       0.3677      0.00000
    180       0.3797      0.00000
    181       0.4170      0.00000
    182       0.4559      0.00000
    183       0.4639      0.00000
    184       0.5157      0.00000
    185       0.6058      0.00000
    186       0.6365      0.00000
    187       0.6395      0.00000
    188       0.6632      0.00000
    189       0.6833      0.00000
    190       0.6950      0.00000
    191       0.7083      0.00000
    192       0.7303      0.00000
    193       0.7372      0.00000
    194       0.7538      0.00000
    195       0.7617      0.00000
    196       0.7824      0.00000
    197       0.8061      0.00000
    198       0.8620      0.00000
    199       0.8900      0.00000
    200       0.9424      0.00000
    201       0.9549      0.00000
    202       0.9753      0.00000
    203       1.0093      0.00000
    204       1.0211      0.00000
    205       1.0349      0.00000
    206       1.0434      0.00000
    207       1.0809      0.00000
    208       1.1485      0.00000
    209       1.1816      0.00000
    210       1.1863      0.00000
    211       1.2631      0.00000
    212       1.2750      0.00000
    213       1.2906      0.00000
    214       1.3123      0.00000
    215       1.3719      0.00000
    216       1.4100      0.00000
    217       1.4308      0.00000
    218       1.4407      0.00000
    219       1.4606      0.00000
    220       1.4938      0.00000


--------------------------------------------------------------------------------------------------------


 soft charge-density along one line, spin component           1
         0         1         2         3         4         5         6         7         8         9
 total charge-density along one line
 
 soft charge-density along one line, spin component           2
         0         1         2         3         4         5         6         7         8         9
 total charge-density along one line
 
 pseudopotential strength for first ion, spin component:           1
-10.800   0.019   0.001  -0.002   0.001   1.227  -0.014  -0.001
  0.019 -10.769   0.000  -0.002   0.002  -0.014   1.204  -0.000
  0.001   0.000 -10.783   0.015   0.016  -0.001  -0.000   1.213
 -0.002  -0.002   0.015 -10.792   0.015   0.001   0.001  -0.011
  0.001   0.002   0.016   0.015 -10.808  -0.001  -0.002  -0.011
  1.227  -0.014  -0.001   0.001  -0.001   6.152   0.008   0.000
 -0.014   1.204  -0.000   0.001  -0.002   0.008   6.165   0.000
 -0.001  -0.000   1.213  -0.011  -0.011   0.000   0.000   6.160
  0.001   0.001  -0.011   1.219  -0.011  -0.001  -0.001   0.007
 -0.001  -0.002  -0.011  -0.011   1.233   0.000   0.001   0.007
  0.000   0.001  -0.003  -0.004   0.001   0.000  -0.000  -0.000
  0.001   0.001  -0.006  -0.007   0.001   0.000  -0.000  -0.000
 -0.018   0.010   0.001   0.000   0.001   0.010  -0.006  -0.000
  0.000  -0.001   0.011  -0.019   0.001   0.000   0.000  -0.006
 -0.001   0.000   0.010   0.011  -0.019   0.001   0.000  -0.006
 -0.019   0.010   0.001   0.000   0.001   0.008  -0.005  -0.000
  0.000  -0.001   0.011  -0.019   0.001   0.000   0.000  -0.004
 -0.001   0.000   0.010   0.012  -0.019   0.001   0.000  -0.004
 pseudopotential strength for first ion, spin component:           2
-10.802   0.018   0.001  -0.002   0.001   1.228  -0.013  -0.001
  0.018 -10.768   0.001  -0.002   0.003  -0.013   1.203  -0.001
  0.001   0.001 -10.785   0.015   0.016  -0.001  -0.001   1.215
 -0.002  -0.002   0.015 -10.794   0.015   0.001   0.002  -0.011
  0.001   0.003   0.016   0.015 -10.813  -0.001  -0.002  -0.011
  1.228  -0.013  -0.001   0.001  -0.001   6.150   0.007   0.000
 -0.013   1.203  -0.001   0.002  -0.002   0.007   6.165   0.000
 -0.001  -0.001   1.215  -0.011  -0.011   0.000   0.000   6.159
  0.001   0.002  -0.011   1.221  -0.011  -0.001  -0.001   0.007
 -0.001  -0.002  -0.011  -0.011   1.236   0.000   0.002   0.006
  0.000   0.001  -0.004  -0.004   0.001   0.000  -0.000   0.000
  0.001   0.002  -0.007  -0.007   0.002   0.000  -0.000   0.000
 -0.019   0.011   0.001   0.000   0.001   0.011  -0.007  -0.001
  0.000  -0.001   0.012  -0.019   0.000   0.000   0.000  -0.006
 -0.001   0.000   0.011   0.012  -0.018   0.001   0.000  -0.006
 -0.019   0.012   0.001   0.000   0.001   0.008  -0.007  -0.001
  0.000  -0.001   0.012  -0.019   0.000   0.000  -0.000  -0.004
 -0.001   0.000   0.011   0.012  -0.019   0.001   0.000  -0.004
 total augmentation occupancy for first ion, spin component:           1
  1.951  -0.001  -0.001  -0.001   0.000  -0.013  -0.007  -0.000   0.001  -0.001  -0.001  -0.001   0.078   0.001   0.001  -0.035
 -0.001   1.952  -0.000  -0.002   0.000  -0.007  -0.020  -0.002   0.001  -0.003   0.000  -0.002  -0.040   0.005   0.001   0.020
 -0.001  -0.000   1.949   0.006   0.004  -0.000  -0.002  -0.011  -0.008  -0.000   0.009   0.003   0.002  -0.063  -0.049   0.000
 -0.001  -0.002   0.006   1.961   0.001   0.001   0.001  -0.008  -0.018  -0.001   0.015   0.002   0.001   0.068  -0.026  -0.000
  0.000   0.000   0.004   0.001   1.941  -0.001  -0.003  -0.000  -0.001  -0.003  -0.021   0.009  -0.002   0.012   0.075   0.001
 -0.013  -0.007  -0.000   0.001  -0.001   0.010  -0.003  -0.001   0.000  -0.000   0.004  -0.001   0.025   0.001   0.001  -0.001
 -0.007  -0.020  -0.002   0.001  -0.003  -0.003   0.006   0.000   0.000  -0.000   0.006  -0.000  -0.016  -0.000   0.000   0.001
 -0.000  -0.002  -0.011  -0.008  -0.000  -0.001   0.000   0.007  -0.001  -0.001  -0.023   0.002  -0.002  -0.011  -0.011   0.000
  0.001   0.001  -0.008  -0.018  -0.001   0.000   0.000  -0.001   0.008  -0.002  -0.038   0.005   0.001   0.019  -0.012  -0.000
 -0.001  -0.003  -0.000  -0.001  -0.003  -0.000  -0.000  -0.001  -0.002   0.007   0.005  -0.002  -0.001  -0.000   0.015   0.000
 -0.001   0.000   0.009   0.015  -0.021   0.004   0.006  -0.023  -0.038   0.005   1.685  -0.094   0.011  -0.151   0.262  -0.001
 -0.001  -0.002   0.003   0.002   0.009  -0.001  -0.000   0.002   0.005  -0.002  -0.094   0.010  -0.001   0.015  -0.025   0.000
[...]
 -0.001  -0.002   0.004   0.002   0.008  -0.001  -0.000   0.002   0.005  -0.002  -0.093   0.010  -0.001   0.015  -0.025   0.000
  0.079  -0.040   0.002   0.002  -0.003   0.025  -0.016  -0.002   0.001  -0.001   0.010  -0.001   0.115   0.007   0.004  -0.007
  0.001   0.005  -0.063   0.067   0.012   0.001  -0.001  -0.011   0.018  -0.000  -0.151   0.015   0.007   0.075  -0.022  -0.000
  0.001   0.002  -0.049  -0.026   0.075   0.001   0.000  -0.011  -0.012   0.015   0.262  -0.025   0.004  -0.022   0.091  -0.000
 -0.035   0.020   0.000  -0.000   0.000  -0.001   0.001   0.000  -0.000   0.000  -0.001   0.000  -0.007  -0.000  -0.000   0.001
 -0.000  -0.001   0.024  -0.034  -0.001  -0.000   0.000   0.000  -0.001   0.000   0.018  -0.002  -0.000  -0.006   0.003  -0.000
 -0.001  -0.000   0.021   0.018  -0.035  -0.000  -0.000   0.001   0.001  -0.001  -0.031   0.003  -0.000   0.003  -0.010   0.000
 total augmentation occupancy for first ion, spin component:           2
 -0.000  -0.001  -0.000  -0.000   0.000   0.001   0.000   0.000   0.000  -0.000   0.000  -0.000  -0.002  -0.000  -0.000  -0.000
 -0.001   0.002   0.001  -0.000   0.000   0.000   0.000  -0.000   0.000  -0.000  -0.000  -0.000   0.006   0.001   0.000   0.000
 -0.000   0.001  -0.000   0.000  -0.000   0.000  -0.000   0.000  -0.000   0.000  -0.001   0.000   0.002   0.000   0.000   0.000
 -0.000  -0.000   0.000  -0.000   0.000   0.000   0.000  -0.000   0.000  -0.000  -0.000  -0.000   0.000  -0.000   0.000   0.000
  0.000   0.000  -0.000   0.000  -0.002  -0.000  -0.000   0.000  -0.000   0.001  -0.001   0.001   0.000  -0.000   0.001   0.000
  0.001   0.000   0.000   0.000  -0.000  -0.000  -0.000  -0.000  -0.000  -0.000   0.000  -0.000   0.001   0.000   0.000  -0.000
  0.000   0.000  -0.000   0.000  -0.000  -0.000   0.000   0.000  -0.000  -0.000   0.001  -0.000  -0.002  -0.000  -0.000   0.000
  0.000  -0.000   0.000  -0.000   0.000  -0.000   0.000   0.000   0.000   0.000  -0.001   0.000  -0.001  -0.000  -0.000   0.000
  0.000   0.000  -0.000   0.000  -0.000  -0.000  -0.000   0.000  -0.000   0.000   0.000  -0.000  -0.000   0.000  -0.000  -0.000
 -0.000  -0.000   0.000  -0.000   0.001  -0.000  -0.000   0.000   0.000   0.000  -0.002   0.000  -0.000   0.000  -0.000  -0.000
  0.000  -0.000  -0.001  -0.000  -0.001   0.000   0.001  -0.001   0.000  -0.002   0.001  -0.001  -0.001   0.000  -0.001   0.000
 -0.000  -0.000   0.000  -0.000   0.001  -0.000  -0.000   0.000  -0.000   0.000  -0.001   0.000  -0.000   0.000   0.000  -0.000
 -0.002   0.006   0.002   0.000   0.000   0.001  -0.002  -0.001  -0.000  -0.000  -0.001  -0.000   0.018   0.003   0.001  -0.000
 -0.000   0.001   0.000  -0.000  -0.000   0.000  -0.000  -0.000   0.000   0.000   0.000   0.000   0.003   0.001   0.000  -0.000
 -0.000   0.000   0.000   0.000   0.001   0.000  -0.000  -0.000  -0.000  -0.000  -0.001   0.000   0.001   0.000  -0.000   0.000
 -0.000   0.000   0.000   0.000   0.000  -0.000   0.000   0.000  -0.000  -0.000   0.000  -0.000  -0.000  -0.000   0.000   0.000
  0.000   0.000   0.000  -0.000  -0.000  -0.000   0.000  -0.000  -0.000  -0.000   0.000  -0.000  -0.000  -0.000  -0.000   0.000
 -0.000   0.000   0.000   0.000   0.000  -0.000  -0.000   0.000  -0.000   0.000   0.000   0.000   0.000  -0.000   0.000   0.000


------------------------ aborting loop because EDIFF is reached ----------------------------------------


 


 total charge     
 
# of ion     s       p       d       tot
----------------------------------------
  1        0.487   0.146   9.274   9.906
  2        0.456   0.295   9.214   9.965
  3        0.456   0.293   9.215   9.964
  4        0.487   0.147   9.274   9.908
  5        0.459   0.276   9.216   9.951
  6        0.428   0.368   9.220  10.016
  7        0.459   0.277   9.216   9.951
  8        0.472   0.257   9.217   9.946
  9        0.471   0.256   9.217   9.945
 10        0.468   0.225   9.231   9.925
 11        0.470   0.230   9.230   9.929
 12        0.451   0.311   9.211   9.973
 13        0.450   0.310   9.212   9.971
 14        0.470   0.230   9.230   9.930
 15        0.470   0.228   9.230   9.929
 16        0.432   0.309   9.224   9.965
 17        0.433   0.311   9.223   9.967
 18        0.432   0.308   9.223   9.963
 19        0.433   0.310   9.223   9.967
 20        0.465   0.187   9.258   9.910
 21        0.464   0.186   9.258   9.909
 22        0.478   0.184   9.254   9.916
 23        0.480   0.187   9.253   9.920
 24        0.479   0.185   9.254   9.917
 25        0.479   0.185   9.254   9.917
 26        0.481   0.176   9.255   9.912
 27        0.482   0.177   9.255   9.913
------------------------------------------------
tot       12.493   6.554 249.340 268.387
 


 magnetization (x)
 
# of ion     s       p       d       tot
----------------------------------------
  1       -0.001   0.012  -0.002   0.009
  2       -0.001  -0.001   0.015   0.013
  3       -0.001  -0.001   0.015   0.014
  4       -0.001   0.012  -0.002   0.009
  5       -0.001   0.001   0.012   0.012
  6       -0.000   0.012  -0.006   0.007
  7       -0.001   0.001   0.012   0.013
  8       -0.001  -0.001   0.005   0.003
  9       -0.001  -0.001   0.005   0.003
 10        0.020   0.009   0.001   0.029
 11        0.020   0.010   0.000   0.031
 12        0.022   0.001   0.005   0.029
 13        0.021   0.001   0.006   0.028
 14        0.021   0.010   0.000   0.031
 15        0.021   0.009   0.000   0.030
 16        0.001   0.008   0.007   0.016
 17        0.001   0.009   0.006   0.016
 18        0.001   0.009   0.007   0.016
 19        0.001   0.008   0.007   0.016
 20        0.001   0.002   0.005   0.008
 21        0.001   0.002   0.005   0.008
 22        0.000   0.006   0.007   0.013
 23        0.000   0.007   0.007   0.014
 24        0.000   0.007   0.007   0.014
 25        0.000   0.006   0.007   0.013
 26        0.004   0.004   0.006   0.015
 27        0.004   0.004   0.006   0.015
------------------------------------------------
tot        0.132   0.149   0.144   0.425
 
    CHARGE:  cpu time    0.3428: real time    0.3429
    FORLOC:  cpu time    0.0472: real time    0.0474
    FORNL :  cpu time    6.3497: real time    6.3545
    STRESS:  cpu time    6.8276: real time    7.1435
    FORCOR:  cpu time    0.5945: real time    0.5966
    FORHAR:  cpu time    0.1030: real time    0.1031
    MIXING:  cpu time    0.0269: real time    0.0269
    OFIELD:  cpu time    0.0001: real time    0.0001

  FORCE on cell =-STRESS in cart. coord.  units (eV):
  Direction    XX          YY          ZZ          XY          YZ          ZX
  --------------------------------------------------------------------------------------
  Alpha Z    42.10140    42.10140    42.10140
  Ewald   22914.77023 40136.17085 17195.43845   447.42172  2719.81076    -3.70129
  Hartree 34536.20667 50516.59034 29282.74548   415.14843  2490.27478    -0.30786
  E(xc)   -1733.67986 -1731.69550 -1734.35068     0.05481     0.36353    -0.00599
  Local  -60109.90422-93301.23643-49145.72022  -862.71436 -5207.62243     3.73729
  n-local  -631.38018  -626.42455  -632.91832     0.14877     0.81339    -0.00785
  augment  2540.03792  2532.34283  2544.81588    -0.03834    -1.62623     0.11724
  Kinetic  2435.05601  2424.65785  2440.55528    -0.08573    -2.16235     0.12592
  Fock        0.00000     0.00000     0.00000     0.00000     0.00000     0.00000
  -------------------------------------------------------------------------------------
  Total      -6.79203    -7.49320    -7.33272    -0.06470    -0.14855    -0.04254
  in kB      -0.85934    -0.94806    -0.92775    -0.00819    -0.01879    -0.00538
  external pressure =       -0.91 kB  Pullay stress =        0.00 kB


 VOLUME and BASIS-vectors are now :
 -----------------------------------------------------------------------------
  energy-cutoff  :      295.45
  volume of cell :    12663.19
      direct lattice vectors                 reciprocal lattice vectors
    23.308503404  0.000000000  0.000000000     0.042902797  0.000000000  0.000000000
     0.000000000 23.308503404  0.000000000     0.000000000  0.042902797  0.000000000
     0.000000000  0.000000000 23.308503404     0.000000000  0.000000000  0.042902797

  length of vectors
    23.308503404 23.308503404 23.308503404     0.042902797  0.042902797  0.042902797


 FORCES acting on ions
    electron-ion (+dipol)            ewald-force                    non-local-force                 convergence-correction
 -----------------------------------------------------------------------------------------------
   0.162E+04 0.791E+02 -.937E+03   -.161E+04 -.787E+02 0.931E+03   -.100E+02 -.396E+00 0.545E+01   0.173E-02 -.231E-02 0.176E-02
   0.530E+03 0.195E+03 -.160E+04   -.527E+03 -.195E+03 0.160E+04   -.247E+01 -.172E+00 0.194E+01   -.338E-02 0.198E-02 0.360E-03
   -.558E+03 0.224E+03 -.159E+04   0.556E+03 -.224E+03 0.159E+04   0.250E+01 -.305E+00 0.196E+01   0.404E-02 -.441E-03 0.197E-02
   -.163E+04 0.166E+03 -.897E+03   0.162E+04 -.165E+03 0.891E+03   0.101E+02 -.109E+01 0.523E+01   -.388E-02 0.123E-02 0.109E-01
   0.168E+04 -.108E+03 0.422E+03   -.168E+04 0.108E+03 -.422E+03   -.378E+01 0.696E-01 0.379E+00   -.931E-03 0.202E-02 -.368E-02
   -.160E+01 -.154E+02 0.998E+02   0.160E+01 0.153E+02 -.986E+02   -.820E-02 0.162E+00 -.120E+01   0.169E-02 0.211E-02 -.427E-02
   -.168E+04 -.116E+02 0.468E+03   0.167E+04 0.117E+02 -.469E+03   0.377E+01 -.141E+00 0.301E+00   -.207E-02 -.327E-03 -.231E-02
   0.103E+04 -.232E+03 0.154E+04   -.103E+04 0.231E+03 -.153E+04   -.305E+01 0.463E+00 -.317E+01   0.104E-03 0.233E-02 -.313E-02
   -.100E+04 -.181E+03 0.156E+04   0.100E+04 0.180E+03 -.156E+04   0.305E+01 0.344E+00 -.329E+01   0.270E-02 0.124E-02 -.201E-02
   0.133E+04 -.899E+03 -.900E+03   -.133E+04 0.898E+03 0.897E+03   -.354E+01 0.166E+01 0.294E+01   0.771E-03 0.257E-03 0.526E-02
   0.139E+04 0.103E+04 -.636E+03   -.138E+04 -.102E+04 0.634E+03   -.343E+01 -.209E+01 0.237E+01   -.208E-02 0.179E-02 -.137E-02
   -.398E+02 -.765E+03 -.133E+04   0.398E+02 0.764E+03 0.133E+04   0.905E-02 0.889E+00 0.179E+01   -.176E-02 0.310E-02 -.122E-03
   0.145E+02 0.109E+04 -.110E+04   -.145E+02 -.109E+04 0.110E+04   0.497E-01 -.134E+01 0.156E+01   0.311E-02 0.167E-02 -.930E-03
   -.140E+04 -.828E+03 -.849E+03   0.140E+04 0.827E+03 0.847E+03   0.346E+01 0.136E+01 0.270E+01   -.721E-03 -.684E-03 0.412E-02
   -.135E+04 0.110E+04 -.602E+03   0.134E+04 -.110E+04 0.600E+03   0.348E+01 -.227E+01 0.228E+01   -.462E-03 0.176E-02 0.434E-02
   0.104E+04 -.103E+04 0.555E+03   -.104E+04 0.103E+04 -.554E+03   -.121E+01 0.157E+01 -.920E+00   -.397E-02 0.178E-04 0.289E-03
   0.109E+04 0.793E+03 0.801E+03   -.109E+04 -.792E+03 -.800E+03   -.122E+01 -.122E+01 -.133E+01   -.173E-02 0.551E-02 -.268E-02
   -.108E+04 -.984E+03 0.593E+03   0.108E+04 0.982E+03 -.592E+03   0.131E+01 0.153E+01 -.103E+01   0.760E-03 0.104E-02 -.401E-03
   -.102E+04 0.854E+03 0.828E+03   0.102E+04 -.853E+03 -.827E+03   0.113E+01 -.127E+01 -.135E+01   0.446E-02 0.190E-02 -.245E-02
   0.187E+01 -.101E+04 0.164E+04   -.177E+01 0.101E+04 -.163E+04   -.911E-01 0.345E+01 -.768E+01   -.106E-02 0.107E-02 -.174E-02
   0.323E+02 0.546E+03 0.184E+04   -.322E+02 -.544E+03 -.183E+04   -.519E-01 -.131E+01 -.843E+01   0.106E-01 0.917E-03 -.758E-02
   0.703E+03 -.160E+04 -.660E+03   -.701E+03 0.159E+04 0.657E+03   -.230E+01 0.771E+01 0.234E+01   -.180E-02 -.106E-02 0.582E-02
   0.798E+03 0.168E+04 -.220E+03   -.796E+03 -.167E+04 0.219E+03   -.265E+01 -.784E+01 0.222E+00   0.121E-02 -.464E-02 -.435E-02
   -.809E+03 -.156E+04 -.639E+03   0.807E+03 0.155E+04 0.636E+03   0.271E+01 0.761E+01 0.223E+01   -.857E-03 0.379E-02 0.441E-02
   -.717E+03 0.171E+04 -.194E+03   0.714E+03 -.171E+04 0.194E+03   0.233E+01 -.804E+01 0.557E-01   0.367E-02 -.325E-02 -.176E-02
   -.293E+02 -.173E+04 0.689E+03   0.292E+02 0.172E+04 -.687E+03   0.139E+00 0.770E+01 -.185E+01   -.429E-02 0.361E-02 0.236E-02
   0.620E+02 0.150E+04 0.112E+04   -.617E+02 -.149E+04 -.112E+04   -.272E+00 -.694E+01 -.382E+01   0.433E-02 -.332E-02 -.477E-02
 -----------------------------------------------------------------------------------------------
   -.158E-02 -.106E+00 0.226E+00   0.568E-13 -.909E-12 -.909E-12   -.608E-01 0.856E-01 -.325E+00   0.102E-01 0.213E-01 -.194E-02
 
 
 POSITION                                       TOTAL-FORCE (eV/Angst)
 -----------------------------------------------------------------------------------
      8.02954     11.48714     13.61212        -0.001192     -0.006685     -0.008548
     10.44374     11.43041     13.63754        -0.018089     -0.008540     -0.010814
     12.90165     11.36380     13.61272         0.011991     -0.003044     -0.012032
     15.31422     11.30938     13.51917         0.000755     -0.000061      0.009778
      9.12665     11.74701     11.46986         0.009438     -0.009050      0.010366
     11.65770     11.68014     11.47285        -0.003435      0.003609      0.000446
     14.17912     11.61518     11.39952        -0.003332      0.004508      0.018366
     10.41013     11.98140      9.34328        -0.001018     -0.002459      0.008698
     12.86419     11.92753      9.31036         0.004456      0.007575      0.014880
      9.24257     13.57017     13.21365        -0.011482     -0.006130      0.006678
      9.12559      9.54190     12.66259        -0.010904     -0.002106     -0.009301
     11.72781     13.54063     13.27734        -0.005614     -0.008302      0.001090
     11.60959      9.41268     12.74195        -0.004700      0.002804     -0.012885
     14.21436     13.43241     13.12356         0.001593      0.011289      0.007137
     14.08861      9.41642     12.60146         0.008223     -0.005826      0.001734
     10.39655     13.87170     11.05662        -0.011081     -0.010462      0.008661
     10.28074      9.73909     10.50043         0.005204      0.007640     -0.007127
     13.01624     13.81448     11.00791         0.001546      0.000105      0.006616
     12.88579      9.66891     10.46650         0.008453      0.011404      0.000053
     11.67415     14.04984      8.97473         0.002410      0.016036      0.010935
     11.57695     10.03289      8.42519         0.012900     -0.003328     -0.015399
     10.54207     15.60325     12.80239        -0.008199     -0.007908      0.011577
     10.31467      7.62577     11.73454        -0.001816     -0.006925     -0.015615
     13.01568     15.52307     12.77201        -0.001635      0.008470     -0.003919
     12.78097      7.55993     11.70047         0.008644     -0.002869     -0.005595
     11.73630     15.86597     10.65241        -0.006226      0.007564     -0.001017
     11.50924      7.85371      9.57361         0.013109      0.002692     -0.014762
 -----------------------------------------------------------------------------------
    total drift:                               -0.052209      0.000414     -0.101352


--------------------------------------------------------------------------------------------------------



  FREE ENERGIE OF THE ION-ELECTRON SYSTEM (eV)
  ---------------------------------------------------
  free  energy   TOTEN  =       -76.62481548 eV

  energy  without entropy=      -76.62481548  energy(sigma->0) =      -76.62481548
 
 d Force = 0.9825316E-03[ 0.721E-03, 0.124E-02]  d Energy = 0.9821376E-03 0.394E-06
 d Force = 0.4925072E+02[ 0.493E+02, 0.492E+02]  d Ewald  = 0.4925074E+02-0.231E-04


--------------------------------------------------------------------------------------------------------


    POTLOK:  cpu time    0.5890: real time    0.5895


--------------------------------------------------------------------------------------------------------


 Conjugate gradient step on ions:
 trial-energy change:   -0.000982  1 .order   -0.000983   -0.001244   -0.000721
  (g-gl).g = 0.602E-03      g.g   = 0.609E-03  gl.gl    = 0.814E-03
 g(Force)  = 0.609E-03   g(Stress)= 0.000E+00 ortho     =-0.344E-04
 gamma     =   0.73976
 trial     =   2.13080
 opt step  =   5.07262  (harmonic =   5.07262) maximal distance =0.01310222
 next E    =   -76.625314   (d E  =  -0.00148)


--------------------------------------------------------------------------------------------------------


  
 reached required accuracy - stopping structural energy minimisation
     LOOP+:  cpu time  118.4031: real time  118.8789
    4ORBIT:  cpu time    0.0000: real time    0.0000
 


 total charge     
 
# of ion     s       p       d       tot
----------------------------------------
  1        0.487   0.146   9.274   9.906
  2        0.456   0.295   9.214   9.965
  3        0.456   0.293   9.215   9.964
  4        0.487   0.147   9.274   9.908
  5        0.459   0.276   9.216   9.951
  6        0.428   0.368   9.220  10.016
  7        0.459   0.277   9.216   9.951
  8        0.472   0.257   9.217   9.946
  9        0.471   0.256   9.217   9.945
 10        0.468   0.225   9.231   9.925
 11        0.470   0.230   9.230   9.929
 12        0.451   0.311   9.211   9.973
 13        0.450   0.310   9.212   9.971
 14        0.470   0.230   9.230   9.930
 15        0.470   0.228   9.230   9.929
 16        0.432   0.309   9.224   9.965
 17        0.433   0.311   9.223   9.967
 18        0.432   0.308   9.223   9.963
 19        0.433   0.310   9.223   9.967
 20        0.465   0.187   9.258   9.910
 21        0.464   0.186   9.258   9.909
 22        0.478   0.184   9.254   9.916
 23        0.480   0.187   9.253   9.920
 24        0.479   0.185   9.254   9.917
 25        0.479   0.185   9.254   9.917
 26        0.481   0.176   9.255   9.912
 27        0.482   0.177   9.255   9.913
------------------------------------------------
tot       12.493   6.554 249.340 268.387
 


 magnetization (x)
 
# of ion     s       p       d       tot
----------------------------------------
  1       -0.001   0.012  -0.002   0.009
  2       -0.001  -0.001   0.015   0.013
  3       -0.001  -0.001   0.015   0.014
  4       -0.001   0.012  -0.002   0.009
  5       -0.001   0.001   0.012   0.012
  6       -0.000   0.012  -0.006   0.007
  7       -0.001   0.001   0.012   0.013
  8       -0.001  -0.001   0.005   0.003
  9       -0.001  -0.001   0.005   0.003
 10        0.020   0.009   0.001   0.029
 11        0.020   0.010   0.000   0.031
 12        0.022   0.001   0.005   0.029
 13        0.021   0.001   0.006   0.028
 14        0.021   0.010   0.000   0.031
 15        0.021   0.009   0.000   0.030
 16        0.001   0.008   0.007   0.016
 17        0.001   0.009   0.006   0.016
 18        0.001   0.009   0.007   0.016
 19        0.001   0.008   0.007   0.016
 20        0.001   0.002   0.005   0.008
 21        0.001   0.002   0.005   0.008
 22        0.000   0.006   0.007   0.013
 23        0.000   0.007   0.007   0.014
 24        0.000   0.007   0.007   0.014
 25        0.000   0.006   0.007   0.013
 26        0.004   0.004   0.006   0.015
 27        0.004   0.004   0.006   0.015
------------------------------------------------
tot        0.132   0.149   0.144   0.425
 

 total amount of memory used by VASP on root node   111813. kBytes
========================================================================

   base      :      30000. kBytes
   nonl-proj :       7015. kBytes
   fftplans  :      14999. kBytes
   grid      :      38205. kBytes
   one-center:         77. kBytes
   wavefun   :      21517. kBytes
 
  
  
 General timing and accounting informations for this job:
 ========================================================
  
                  Total CPU time used (sec):     1361.189
                            User time (sec):     1327.393
                          System time (sec):       33.796
                         Elapsed time (sec):     1365.660
  
                   Maximum memory used (kb):      197952.
                   Average memory used (kb):           0.
  
                          Minor page faults:      2239170
                          Major page faults:            0
                 Voluntary context switches:         4069
