 vasp.5.4.1 05Feb16 (build Apr 11 2020 03:28:46) gamma-only                     
  
 executed on           IFC91_ompi date 2022.05.23  16:41:24
 running on   24 total cores
 distrk:  each k-point on   24 cores,    1 groups
 distr:  one band on NCORES_PER_BAND=   6 cores,    4 groups


--------------------------------------------------------------------------------------------------------


 INCAR:
 POTCAR:    PAW_PBE Cu 22Jun2005                  
 POTCAR:    PAW_PBE Cu 22Jun2005                  
   VRHFIN =Cu: d10 p1                                                           
   LEXCH  = PE                                                                  
   EATOM  =  1390.9808 eV,  102.2342 Ry                                         
                                                                                
   TITEL  = PAW_PBE Cu 22Jun2005                                                
   LULTRA =        F    use ultrasoft PP ?                                      
   IUNSCR =        1    unscreen: 0-lin 1-nonlin 2-no                           
   RPACOR =    2.000    partial core radius                                     
   POMASS =   63.546; ZVAL   =   11.000    mass and valenz                      
   RCORE  =    2.300    outmost cutoff radius                                   
   RWIGS  =    2.200; RWIGS  =    1.164    wigner-seitz radius (au A)           
   ENMAX  =  295.446; ENMIN  =  221.585 eV                                      
   ICORE  =        3    local potential                                         
   LCOR   =        T    correct aug charges                                     
   LPAW   =        T    paw PP                                                  
   EAUG   =  586.980                                                            
   DEXC   =    0.000                                                            
   RMAX   =    2.344    core radius for proj-oper                               
   RAUG   =    1.300    factor for augmentation sphere                          
   RDEP   =    2.302    radius for radial grids                                 
   RDEPT  =    1.771    core radius for aug-charge                              
                                                                                
   Atomic configuration                                                         
    9 entries                                                                   
     n  l   j            E        occ.                                          
     1  0  0.50     -8850.2468   2.0000                                         
     2  0  0.50     -1062.3498   2.0000                                         
     2  1  1.50      -916.8226   6.0000                                         
     3  0  0.50      -114.6929   2.0000                                         
     3  1  1.50       -72.1325   6.0000                                         
     3  2  2.50        -5.0394  10.0000                                         
     4  0  0.50        -4.6097   1.0000                                         
     4  1  0.50        -4.0817   0.0000                                         
     4  3  2.50        -1.3606   0.0000                                         
   Description                                                                  
     l       E           TYP  RCUT    TYP  RCUT                                 
     2     -5.0393973     23  2.200                                             
     2     10.8846608     23  2.200                                             
     0     -4.6097109     23  2.200                                             
     0      8.2520465     23  2.200                                             
     1     -2.7211652     23  2.200                                             
     1     21.7055443     23  2.200                                             
     3      2.7211652     23  2.300                                             
  local pseudopotential read in
  partial core-charges read in
  partial kinetic energy density read in
  atomic valenz-charges read in
  non local Contribution for L=           2  read in
    real space projection operators read in
  non local Contribution for L=           2  read in
    real space projection operators read in
  non local Contribution for L=           0  read in
    real space projection operators read in
  non local Contribution for L=           0  read in
    real space projection operators read in
  non local Contribution for L=           1  read in
    real space projection operators read in
  non local Contribution for L=           1  read in
    real space projection operators read in
    PAW grid and wavefunctions read in
 
   number of l-projection  operators is LMAX  =           6
   number of lm-projection operators is LMMAX =          18
 

 ----------------------------------------------------------------------------- 
|                                                                             |
|  ADVICE TO THIS USER RUNNING 'VASP/VAMP'   (HEAR YOUR MASTER'S VOICE ...):  |
|                                                                             |
|      You have a (more or less) 'large supercell' and for larger cells       |
|      it might be more efficient to use real space projection opertators     |
|      So try LREAL= Auto  in the INCAR   file.                               |
|      Mind: At the moment your POTCAR file does not contain real space       |
|       projectors, and has to be modified,  BUT if you                       |
|      want to do an extremely  accurate calculation you might also keep the  |
|      reciprocal projection scheme          (i.e. LREAL=.FALSE.)             |
|                                                                             |
 ----------------------------------------------------------------------------- 

  PAW_PBE Cu 22Jun2005                  :
 energy of atom  1       EATOM=-1390.9808
 kinetic energy error for atom=    0.0452 (will be added to EATOM!!)
 
 
 POSCAR: Unknown Structure <s> Cu </s>           
  positions in direct lattice
  velocities in cartesian coordinates
 exchange correlation table for  LEXCH =        8
   RHO(1)=    0.500       N(1)  =     2000
   RHO(2)=  100.500       N(2)  =     4000
 


--------------------------------------------------------------------------------------------------------


 ion  position               nearest neighbor table
   1  0.539  0.366  0.663-   4 2.37   5 2.38   2 2.50   6 2.52
   2  0.442  0.345  0.611-   4 2.43   7 2.46   5 2.46   3 2.47   1 2.50
   3  0.438  0.362  0.502-  18 2.45   7 2.46   2 2.47   4 2.47   8 2.52  10 2.52
   4  0.530  0.383  0.559-   1 2.37   2 2.43   9 2.47   3 2.47   6 2.49  12 2.52   8 2.52
   5  0.468  0.444  0.651-   1 2.38  13 2.42   6 2.43   2 2.46   7 2.48  11 2.48  12 2.72
   6  0.569  0.466  0.621-   5 2.43  17 2.48   9 2.48   4 2.49   1 2.52  11 2.54  12 2.56
   7  0.392  0.435  0.571-   2 2.46  22 2.46   3 2.46  13 2.47   5 2.48  18 2.52  12 2.61
   8  0.522  0.417  0.452-  10 2.39   9 2.47  15 2.51   3 2.52   4 2.52  14 2.56  19 2.57  18 2.59
                            12 2.64  20 2.65
   9  0.602  0.454  0.516-  16 2.42   8 2.47   4 2.47   6 2.48  17 2.48  19 2.60  14 2.62  12 2.65

  10  0.440  0.384  0.392-   8 2.39  18 2.45  20 2.48  15 2.50   3 2.52
  11  0.494  0.550  0.631-  12 2.46  26 2.47   5 2.48  13 2.50   6 2.54  25 2.55  17 2.58
  12  0.492  0.488  0.541-  11 2.46  19 2.47  18 2.47   4 2.52  22 2.56   6 2.56  17 2.57   7 2.61
                            25 2.64   8 2.64   9 2.65   5 2.72
  13  0.388  0.517  0.644-  22 2.41  26 2.42   5 2.42   7 2.47  11 2.50
  14  0.612  0.465  0.401-  19 2.44  23 2.47  21 2.49  15 2.50  16 2.52   8 2.56   9 2.62
  15  0.537  0.407  0.341-  20 2.41  21 2.42  10 2.50  14 2.50   8 2.51
  16  0.650  0.541  0.474-  23 2.39   9 2.42  17 2.45  19 2.49  14 2.52  27 2.54
  17  0.583  0.555  0.558-  25 2.44  16 2.45   6 2.48   9 2.48  12 2.57  11 2.58  19 2.60  27 2.68

  18  0.416  0.462  0.464-  24 2.44  10 2.45   3 2.45  12 2.47  22 2.49  20 2.51   7 2.52   8 2.59

  19  0.542  0.530  0.453-  27 2.37  14 2.44  12 2.47  16 2.49  28 2.50  24 2.53  20 2.57   8 2.57
                             9 2.60  17 2.60  23 2.62  25 2.72
  20  0.473  0.488  0.372-  15 2.41  21 2.42  24 2.48  10 2.48  18 2.51  28 2.52  19 2.57   8 2.65

  21  0.561  0.508  0.312-  23 2.41  15 2.42  20 2.42  28 2.48  14 2.49
  22  0.390  0.540  0.539-  26 2.39  13 2.41   7 2.46  29 2.48  18 2.49  24 2.52  12 2.56  25 2.68

  23  0.620  0.572  0.376-  16 2.39  21 2.41  28 2.45  14 2.47  27 2.52  19 2.62
  24  0.436  0.567  0.440-  30 2.42  18 2.44  29 2.45  28 2.48  20 2.48  22 2.52  19 2.53  25 2.54

  25  0.490  0.605  0.532-  29 2.42  17 2.44  30 2.51  26 2.53  24 2.54  11 2.55  27 2.56  12 2.64
                            22 2.68  19 2.72
  26  0.410  0.617  0.610-  22 2.39  13 2.42  11 2.47  29 2.49  25 2.53
  27  0.579  0.628  0.464-  19 2.37  30 2.46  23 2.52  16 2.54  25 2.56  17 2.68  28 2.77
  28  0.513  0.593  0.366-  30 2.45  23 2.45  24 2.48  21 2.48  19 2.50  20 2.52  27 2.77
  29  0.394  0.645  0.504-  25 2.42  30 2.45  24 2.45  22 2.48  26 2.49
  30  0.479  0.666  0.439-  24 2.42  28 2.45  29 2.45  27 2.46  25 2.51
 

IMPORTANT INFORMATION: All symmetrisations will be switched off!
NOSYMM: (Re-)initialisation of all symmetry stuff for point group C_1.

 
 
 KPOINTS: Gamma only                              
  k-points in reciprocal lattice
Space group operators:
 irot       det(A)        alpha          n_x          n_y          n_z        tau_x        tau_y        tau_z
    1     1.000000     0.000000     1.000000     0.000000     0.000000     0.000000     0.000000     0.000000


--------------------------------------------------------------------------------------------------------




 Dimension of arrays:
   k-points           NKPTS =      1   k-points in BZ     NKDIM =      1   number of bands    NBANDS=    244
   number of dos      NEDOS =    301   number of ions     NIONS =     30
   non local maximal  LDIM  =      6   non local SUM 2l+1 LMDIM =     18
   total plane-waves  NPLWV = 884736
   max r-space proj   IRMAX =      1   max aug-charges    IRDMAX=   2469
   dimension x,y,z NGX =    96 NGY =   96 NGZ =   96
   dimension x,y,z NGXF=   192 NGYF=  192 NGZF=  192
   support grid    NGXF=   192 NGYF=  192 NGZF=  192
   ions per type =              30
 NGX,Y,Z   is equivalent  to a cutoff of   7.11,  7.11,  7.11 a.u.
 NGXF,Y,Z  is equivalent  to a cutoff of  14.23, 14.23, 14.23 a.u.


 I would recommend the setting:
   dimension x,y,z NGX =    94 NGY =   94 NGZ =   94
 SYSTEM =  unknown system                          
 POSCAR =  Unknown Structure <s> Cu </s>           

 Startparameter for this run:
   NWRITE =      2    write-flag & timer
   PREC   = normal    normal or accurate (medium, high low for compatibility)
   ISTART =      0    job   : 0-new  1-cont  2-samecut
   ICHARG =      2    charge: 1-file 2-atom 10-const
   ISPIN  =      2    spin polarized calculation?
   LNONCOLLINEAR =      F non collinear calculations
   LSORBIT =      F    spin-orbit coupling
   INIWAV =      1    electr: 0-lowe 1-rand  2-diag
   LASPH  =      F    aspherical Exc in radial PAW
   METAGGA=      F    non-selfconsistent MetaGGA calc.

 Electronic Relaxation 1
   ENCUT  =  295.4 eV  21.71 Ry    4.66 a.u.  31.44 31.44 31.44*2*pi/ulx,y,z
   ENINI  =  295.4     initial cutoff
   ENAUG  =  587.0 eV  augmentation charge cutoff
   NELM   =     60;   NELMIN=  2; NELMDL=  0     # of ELM steps 
   EDIFF  = 0.1E-05   stopping-criterion for ELM
   LREAL  =      F    real-space projection
   NLSPLINE    = F    spline interpolate recip. space projectors
   LCOMPAT=      F    compatible to vasp.4.4
   GGA_COMPAT  = T    GGA compatible to vasp.4.4-vasp.4.6
   LMAXPAW     = -100 max onsite density
   LMAXMIX     =    2 max onsite mixed and CHGCAR
   VOSKOWN=      0    Vosko Wilk Nusair interpolation
   ROPT   =    0.00000
 Ionic relaxation
   EDIFFG = -.3E-01   stopping-criterion for IOM
   NSW    =   1000    number of steps for IOM
   NBLOCK =      1;   KBLOCK =   1000    inner block; outer block 
   IBRION =      2    ionic relax: 0-MD 1-quasi-New 2-CG
   NFREE  =      1    steps in history (QN), initial steepest desc. (CG)
   ISIF   =      2    stress and relaxation
   IWAVPR =     11    prediction:  0-non 1-charg 2-wave 3-comb
   ISYM   =      0    0-nonsym 1-usesym 2-fastsym
   LCORR  =      T    Harris-Foulkes like correction to forces

   POTIM  = 0.5000    time-step for ionic-motion
   TEIN   =    0.0    initial temperature
   TEBEG  =    0.0;   TEEND  =   0.0 temperature during run
   SMASS  =  -3.00    Nose mass-parameter (am)
   estimated Nose-frequenzy (Omega)   =  0.10E-29 period in steps =****** mass=  -0.115E-25a.u.
   SCALEE = 1.0000    scale energy and forces
   NPACO  =    256;   APACO  = 16.0  distance and # of slots for P.C.
   PSTRESS=    0.0 pullay stress

  Mass of Ions in am
   POMASS =  63.55
  Ionic Valenz
   ZVAL   =  11.00
  Atomic Wigner-Seitz radii
   RWIGS  =  -1.00
  virtual crystal weights 
   VCA    =   1.00
   NELECT =     330.0000    total number of electrons
   NUPDOWN=      -1.0000    fix difference up-down

 DOS related values:
   EMIN   =  10.00;   EMAX   =-10.00  energy-range for DOS
   EFERMI =   0.00
   ISMEAR =     0;   SIGMA  =   0.00  broadening in eV -4-tet -1-fermi 0-gaus

 Electronic relaxation 2 (details)
   IALGO  =     68    algorithm
   LDIAG  =      T    sub-space diagonalisation (order eigenvalues)
   LSUBROT=      F    optimize rotation matrix (better conditioning)
   TURBO    =      0    0=normal 1=particle mesh
   IRESTART =      0    0=no restart 2=restart with 2 vectors
   NREBOOT  =      0    no. of reboots
   NMIN     =      0    reboot dimension
   EREF     =   0.00    reference energy to select bands
   IMIX   =      4    mixing-type and parameters
     AMIX     =   0.20;   BMIX     =  0.00
     AMIX_MAG =   0.80;   BMIX_MAG =  0.00
     AMIN     =   0.10
     WC   =   100.;   INIMIX=   1;  MIXPRE=   1;  MAXMIX= -45

 Intra band minimization:
   WEIMIN = 0.0010     energy-eigenvalue tresh-hold
   EBREAK =  0.10E-08  absolut break condition
   DEPER  =   0.30     relativ break condition  

   TIME   =   0.40     timestep for ELM

  volume/ion in A,a.u.               =     376.29      2539.36
  Fermi-wavevector in a.u.,A,eV,Ry     =   0.504309  0.953005  3.460331  0.254327
  Thomas-Fermi vector in A             =   1.514266
 
 Write flags
   LWAVE  =      F    write WAVECAR
   LCHARG =      F    write CHGCAR
   LVTOT  =      F    write LOCPOT, total local potential
   LVHAR  =      F    write LOCPOT, Hartree potential only
   LELF   =      F    write electronic localiz. function (ELF)
   LORBIT =     11    0 simple, 1 ext, 2 COOP (PROOUT)


 Dipole corrections
   LMONO  =      F    monopole corrections only (constant potential shift)
   LDIPOL =      F    correct potential (dipole corrections)
   IDIPOL =      0    1-x, 2-y, 3-z, 4-all directions 
   EPSILON=  1.0000000 bulk dielectric constant

 Exchange correlation treatment:
   GGA     =    PE    GGA type
   LEXCH   =     8    internal setting for exchange type
   VOSKOWN=      0    Vosko Wilk Nusair interpolation
   LHFCALC =     F    Hartree Fock is set to
   LHFONE  =     F    Hartree Fock one center treatment
   AEXX    =    0.0000 exact exchange contribution

 Linear response parameters
   LEPSILON=     F    determine dielectric tensor
   LRPA    =     F    only Hartree local field effects (RPA)
   LNABLA  =     F    use nabla operator in PAW spheres
   LVEL    =     F    velocity operator in full k-point grid
   LINTERFAST=   F  fast interpolation
   KINTER  =     0    interpolate to denser k-point grid
   CSHIFT  =0.1000    complex shift for real part using Kramers Kronig
   OMEGAMAX=  -1.0    maximum frequency
   DEG_THRESHOLD= 0.2000000E-02 threshold for treating states as degnerate
   RTIME   =    0.100 relaxation time in fs

 Orbital magnetization related:
   ORBITALMAG=     F  switch on orbital magnetization
   LCHIMAG   =     F  perturbation theory with respect to B field
   DQ        =  0.001000  dq finite difference perturbation B field



--------------------------------------------------------------------------------------------------------


 conjugate gradient relaxation of ions
 charge density and potential will be updated during run
 spin polarized calculation
 RMM-DIIS sequential band-by-band and
  variant of blocked Davidson during initial phase
 perform sub-space diagonalisation
    before iterative eigenvector-optimisation
 modified Broyden-mixing scheme, WC =      100.0
 initial mixing is a Kerker type mixing with AMIX =  0.2000 and BMIX =      0.0001
 Hartree-type preconditioning will be used
 using additional bands           79
 reciprocal scheme for non local part
 use partial core corrections
 calculate Harris-corrections to forces 
   (improved forces if not selfconsistent)
 use gradient corrections 
 use of overlap-Matrix (Vanderbilt PP)
 Gauss-broadening in eV      SIGMA  =   0.00


--------------------------------------------------------------------------------------------------------


  energy-cutoff  :      295.45
  volume of cell :    11288.84
      direct lattice vectors                 reciprocal lattice vectors
    22.432781173  0.000000000  0.000000000     0.044577620  0.000000000  0.000000000
     0.000000000 22.432781173  0.000000000     0.000000000  0.044577620  0.000000000
     0.000000000  0.000000000 22.432781173     0.000000000  0.000000000  0.044577620

  length of vectors
    22.432781173 22.432781173 22.432781173     0.044577620  0.044577620  0.044577620


 
 k-points in units of 2pi/SCALE and weight: Gamma only                              
   0.00000000  0.00000000  0.00000000       1.000
 
 k-points in reciprocal lattice and weights: Gamma only                              
   0.00000000  0.00000000  0.00000000       1.000
 
 position of ions in fractional coordinates (direct lattice) 
   0.53864825  0.36587211  0.66277168
   0.44218091  0.34534852  0.61068259
   0.43750949  0.36199200  0.50204840
   0.52954873  0.38339300  0.55896133
   0.46763881  0.44413368  0.65146465
   0.56942535  0.46569520  0.62147932
   0.39249824  0.43474682  0.57094516
   0.52175355  0.41687274  0.45179935
   0.60236896  0.45435133  0.51642890
   0.44011266  0.38446337  0.39180447
   0.49417852  0.54966817  0.63133311
   0.49168754  0.48781993  0.54093186
   0.38832849  0.51702277  0.64417439
   0.61214937  0.46450352  0.40063740
   0.53679659  0.40721441  0.34149321
   0.65035935  0.54109115  0.47356776
   0.58293137  0.55505063  0.55806128
   0.41642956  0.46219852  0.46444190
   0.54213453  0.52982888  0.45269125
   0.47267776  0.48825782  0.37152605
   0.56086659  0.50839669  0.31247342
   0.39035824  0.53980997  0.53930461
   0.61963229  0.57177878  0.37607397
   0.43611620  0.56656367  0.44020223
   0.49006061  0.60529697  0.53213183
   0.40953871  0.61717261  0.61021087
   0.57868056  0.62830692  0.46401913
   0.51307884  0.59278645  0.36555104
   0.39359733  0.64452758  0.50391081
   0.47871261  0.66583580  0.43887800
 
 position of ions in cartesian coordinates  (Angst):
  12.08337842  8.20752893 14.86781215
   9.91934749  7.74712782 13.69930889
   9.81455461  8.12048737 11.26234200
  11.87925072  8.60057130 12.53905721
  10.49043900  9.96315365 14.61416397
  12.77379424 10.44683854 13.94150969
   8.80482705  9.75258019 12.80788780
  11.70438321  9.35161493 10.13511603
  13.51281112 10.19236393 11.58493643
   9.87295110  8.62458273  8.78926401
  11.08579856 12.33058570 14.16255749
  11.02991888 10.94315771 12.13460607
   8.71128797 11.59825874 14.45062314
  13.73221296 10.42010572  8.98741114
  12.04184038  9.13495171  7.66064252
  14.58936887 12.13817942 10.62344192
  13.07677195 12.45132936 12.51886651
   9.34167328 10.36839819 10.41872357
  12.16158524 11.88553544 10.15512378
  10.60347674 10.95298078  8.33436253
  12.58179751 11.40475171  7.00964783
   8.75682100 12.10943900 12.09810239
  13.90007564 12.82658827  8.43638505
   9.78329938 12.70959885  9.87496029
  10.99342241 13.57849436 11.93719684
   9.18709216 13.84489803 13.68872698
  12.98141447 14.09467155 10.40923971
  11.50978526 13.29784872  8.20032649
   8.82948269 14.45854617 11.30412098
  10.73885529 14.93654876  9.84525419
 


--------------------------------------------------------------------------------------------------------


 use parallel FFT for wavefunctions z direction half grid
 k-point  1 :   0.0000 0.0000 0.0000  plane waves:   65098

 maximum and minimum number of plane-waves per node :     10857    10844

 maximum number of plane-waves:     65098
 maximum index in each direction: 
   IXMAX=   31   IYMAX=   31   IZMAX=   31
   IXMIN=  -31   IYMIN=  -31   IZMIN=    0

 WARNING: aliasing errors must be expected set NGX to 126 to avoid them
 WARNING: aliasing errors must be expected set NGY to 126 to avoid them
 WARNING: aliasing errors must be expected set NGZ to 126 to avoid them
 aliasing errors are usually negligible using standard VASP settings
 and one can safely disregard these warnings

 parallel 3D FFT for wavefunctions:
    minimum data exchange during FFTs selected (reduces bandwidth)
 parallel 3D FFT for charge:
    minimum data exchange during FFTs selected (reduces bandwidth)


 total amount of memory used by VASP on root node   104545. kBytes
========================================================================

   base      :      30000. kBytes
   nonl-proj :       6771. kBytes
   fftplans  :      13174. kBytes
   grid      :      33251. kBytes
   one-center:         77. kBytes
   wavefun   :      21272. kBytes
 
     INWAV:  cpu time    0.0000: real time    0.0000
 Broyden mixing: mesh for mixing (old mesh)
   NGX = 63   NGY = 63   NGZ = 63
  (NGX  =192   NGY  =192   NGZ  =192)
  gives a total of 250047 points

 initial charge density was supplied:
 charge density of overlapping atoms calculated
 number of electron     330.0000000 magnetization      90.0000000
 keeping initial charge density in first step


--------------------------------------------------------------------------------------------------------


 Maximum index for augmentation-charges          203 (set IRDMAX)


--------------------------------------------------------------------------------------------------------


 First call to EWALD:  gamma=   0.079
 Maximum number of real-space cells 3x 3x 3
 Maximum number of reciprocal cells 3x 3x 3

 FEWALD executed in parallel
    FEWALD:  cpu time    0.0022: real time    0.0022


----------------------------------------- Iteration    1(   1)  ---------------------------------------


    POTLOK:  cpu time    0.4999: real time    0.5010
    SETDIJ:  cpu time    0.0152: real time    0.0160
     EDDAV:  cpu time    7.9497: real time    7.9606
       DOS:  cpu time    0.0002: real time    0.0002
    --------------------------------------------
      LOOP:  cpu time    8.4683: real time    8.5172

 eigenvalue-minimisations  :   976
 total energy-change (2. order) : 0.2168595E+04  (-0.7035137E+04)
 number of electron     330.0000000 magnetization      90.0000000
 augmentation part      330.0000000 magnetization      90.0000000

 Free energy of the ion-electron system (eV)
  ---------------------------------------------------
  alpha Z        PSCENC =        58.30494272
  Ewald energy   TEWEN  =     91511.15705205
  -Hartree energ DENC   =   -129562.05266200
  -exchange      EXHF   =         0.00000000
  -V(xc)+E(xc)   XCENC  =      1383.10834305
  PAW double counting   =     36816.51539408   -39986.87630570
  entropy T*S    EENTRO =         0.00000000
  eigenvalues    EBANDS =       220.37113590
  atomic energy  EATOM  =     41728.06753974
  Solvation  Ediel_sol  =         0.00000000
  ---------------------------------------------------
  free energy    TOTEN  =      2168.59543984 eV

  energy without entropy =     2168.59543984  energy(sigma->0) =     2168.59543984


--------------------------------------------------------------------------------------------------------




----------------------------------------- Iteration    1(   2)  ---------------------------------------


     EDDAV:  cpu time    8.2098: real time    8.2180
       DOS:  cpu time    0.0001: real time    0.0001
    --------------------------------------------
      LOOP:  cpu time    8.2122: real time    8.2232

 eigenvalue-minimisations  :  1016
 total energy-change (2. order) :-0.2038922E+04  (-0.1820398E+04)
 number of electron     330.0000000 magnetization      90.0000000
 augmentation part      330.0000000 magnetization      90.0000000

 Free energy of the ion-electron system (eV)
  ---------------------------------------------------
  alpha Z        PSCENC =        58.30494272
  Ewald energy   TEWEN  =     91511.15705205
  -Hartree energ DENC   =   -129562.05266200
  -exchange      EXHF   =         0.00000000
  -V(xc)+E(xc)   XCENC  =      1383.10834305
  PAW double counting   =     36816.51539408   -39986.87630570
  entropy T*S    EENTRO =         0.00000000
  eigenvalues    EBANDS =     -1818.55077562
  atomic energy  EATOM  =     41728.06753974
  Solvation  Ediel_sol  =         0.00000000
  ---------------------------------------------------
  free energy    TOTEN  =       129.67352832 eV

  energy without entropy =      129.67352832  energy(sigma->0) =      129.67352832


--------------------------------------------------------------------------------------------------------




----------------------------------------- Iteration    1(   3)  ---------------------------------------


     EDDAV:  cpu time    9.3839: real time    9.3928
       DOS:  cpu time    0.0001: real time    0.0001
    --------------------------------------------
      LOOP:  cpu time    9.3862: real time    9.3980

 eigenvalue-minimisations  :  1200
 total energy-change (2. order) :-0.1789355E+03  (-0.1689224E+03)
 number of electron     330.0000000 magnetization      90.0000000
 augmentation part      330.0000000 magnetization      90.0000000

 Free energy of the ion-electron system (eV)
  ---------------------------------------------------
  alpha Z        PSCENC =        58.30494272
  Ewald energy   TEWEN  =     91511.15705205
  -Hartree energ DENC   =   -129562.05266200
  -exchange      EXHF   =         0.00000000
  -V(xc)+E(xc)   XCENC  =      1383.10834305
  PAW double counting   =     36816.51539408   -39986.87630570
  entropy T*S    EENTRO =         0.00000000
  eigenvalues    EBANDS =     -1997.48625872
  atomic energy  EATOM  =     41728.06753974
  Solvation  Ediel_sol  =         0.00000000
  ---------------------------------------------------
  free energy    TOTEN  =       -49.26195478 eV

  energy without entropy =      -49.26195478  energy(sigma->0) =      -49.26195478


--------------------------------------------------------------------------------------------------------




----------------------------------------- Iteration    1(   4)  ---------------------------------------


     EDDAV:  cpu time   10.0213: real time   10.0581
       DOS:  cpu time    0.0001: real time    0.0001
    --------------------------------------------
      LOOP:  cpu time   10.0236: real time   10.0633

 eigenvalue-minimisations  :  1232
 total energy-change (2. order) :-0.1153834E+02  (-0.1102659E+02)
 number of electron     330.0000000 magnetization      90.0000000
 augmentation part      330.0000000 magnetization      90.0000000

 Free energy of the ion-electron system (eV)
  ---------------------------------------------------
  alpha Z        PSCENC =        58.30494272
  Ewald energy   TEWEN  =     91511.15705205
  -Hartree energ DENC   =   -129562.05266200
  -exchange      EXHF   =         0.00000000
  -V(xc)+E(xc)   XCENC  =      1383.10834305
  PAW double counting   =     36816.51539408   -39986.87630570
  entropy T*S    EENTRO =         0.00000000
  eigenvalues    EBANDS =     -2009.02459544
  atomic energy  EATOM  =     41728.06753974
  Solvation  Ediel_sol  =         0.00000000
  ---------------------------------------------------
  free energy    TOTEN  =       -60.80029150 eV

  energy without entropy =      -60.80029150  energy(sigma->0) =      -60.80029150


--------------------------------------------------------------------------------------------------------




----------------------------------------- Iteration    1(   5)  ---------------------------------------


     EDDAV:  cpu time    9.7044: real time    9.7136
       DOS:  cpu time    0.0001: real time    0.0001
    CHARGE:  cpu time    0.3104: real time    0.3106
    MIXING:  cpu time    0.0122: real time    0.0122
    --------------------------------------------
      LOOP:  cpu time   10.0295: real time   10.0419

 eigenvalue-minimisations  :  1248
 total energy-change (2. order) :-0.3942729E+00  (-0.3929507E+00)
 number of electron     330.0000002 magnetization      34.0000046
 augmentation part      193.8818445 magnetization      29.7826932

 Broyden mixing:
  rms(total) = 0.96614E+01    rms(broyden)= 0.96597E+01
  rms(prec ) = 0.97804E+01
  weight for this iteration     100.00

 Free energy of the ion-electron system (eV)
  ---------------------------------------------------
  alpha Z        PSCENC =        58.30494272
  Ewald energy   TEWEN  =     91511.15705205
  -Hartree energ DENC   =   -129562.05266200
  -exchange      EXHF   =         0.00000000
  -V(xc)+E(xc)   XCENC  =      1383.10834305
  PAW double counting   =     36816.51539408   -39986.87630570
  entropy T*S    EENTRO =         0.00000000
  eigenvalues    EBANDS =     -2009.41886839
  atomic energy  EATOM  =     41728.06753974
  Solvation  Ediel_sol  =         0.00000000
  ---------------------------------------------------
  free energy    TOTEN  =       -61.19456445 eV

  energy without entropy =      -61.19456445  energy(sigma->0) =      -61.19456445


--------------------------------------------------------------------------------------------------------




----------------------------------------- Iteration    1(   6)  ---------------------------------------


    POTLOK:  cpu time    0.4950: real time    0.4963
    SETDIJ:  cpu time    0.0152: real time    0.0160
    EDDIAG:  cpu time    1.0040: real time    1.0053
  RMM-DIIS:  cpu time    6.4403: real time    6.4493
    ORTHCH:  cpu time    0.1033: real time    0.1033
       DOS:  cpu time    0.0001: real time    0.0001
    CHARGE:  cpu time    0.3078: real time    0.3082
    MIXING:  cpu time    0.0131: real time    0.0132
    --------------------------------------------
      LOOP:  cpu time    8.3822: real time    8.3977

 eigenvalue-minimisations  :   978
 total energy-change (2. order) :-0.2179294E+02  (-0.1200489E+02)
 number of electron     329.9999956 magnetization       0.4509745
 augmentation part      213.8320136 magnetization       1.4887959

 Broyden mixing:
  rms(total) = 0.44065E+01    rms(broyden)= 0.44049E+01
  rms(prec ) = 0.44474E+01
  weight for this iteration     100.00

 eigenvalues of (default mixing * dielectric matrix)
  average eigenvalue GAMMA=   1.6521
  1.6521

 Free energy of the ion-electron system (eV)
  ---------------------------------------------------
  alpha Z        PSCENC =        58.30494272
  Ewald energy   TEWEN  =     91511.15705205
  -Hartree energ DENC   =   -129055.45420201
  -exchange      EXHF   =         0.00000000
  -V(xc)+E(xc)   XCENC  =      1333.52670378
  PAW double counting   =     36839.49842812   -39927.99370654
  entropy T*S    EENTRO =         0.00000000
  eigenvalues    EBANDS =     -2570.09426381
  atomic energy  EATOM  =     41728.06753974
  Solvation  Ediel_sol  =         0.00000000
  ---------------------------------------------------
  free energy    TOTEN  =       -82.98750593 eV

  energy without entropy =      -82.98750593  energy(sigma->0) =      -82.98750593


--------------------------------------------------------------------------------------------------------




----------------------------------------- Iteration    1(   7)  ---------------------------------------


    POTLOK:  cpu time    0.5048: real time    0.5058
    SETDIJ:  cpu time    0.0152: real time    0.0159
    EDDIAG:  cpu time    1.0042: real time    1.0058
  RMM-DIIS:  cpu time    6.6512: real time    6.6561
    ORTHCH:  cpu time    0.0979: real time    0.0979
       DOS:  cpu time    0.0001: real time    0.0001
    CHARGE:  cpu time    0.3063: real time    0.3065
    MIXING:  cpu time    0.0134: real time    0.0134
    --------------------------------------------
      LOOP:  cpu time    8.5967: real time    8.6077

 eigenvalue-minimisations  :   978
 total energy-change (2. order) :-0.6083220E+01  (-0.2862084E+01)
 number of electron     329.9999999 magnetization      -1.7659133
 augmentation part      210.4651682 magnetization      -1.0236901

 Broyden mixing:
  rms(total) = 0.96842E+00    rms(broyden)= 0.96747E+00
  rms(prec ) = 0.12026E+01
  weight for this iteration     100.00

 eigenvalues of (default mixing * dielectric matrix)
  average eigenvalue GAMMA=   1.1657
  0.8139  1.5175

 Free energy of the ion-electron system (eV)
  ---------------------------------------------------
  alpha Z        PSCENC =        58.30494272
  Ewald energy   TEWEN  =     91511.15705205
  -Hartree energ DENC   =   -129402.41513290
  -exchange      EXHF   =         0.00000000
  -V(xc)+E(xc)   XCENC  =      1332.90925017
  PAW double counting   =     37511.75105250   -40661.67272467
  entropy T*S    EENTRO =         0.00000000
  eigenvalues    EBANDS =     -2167.17270589
  atomic energy  EATOM  =     41728.06753974
  Solvation  Ediel_sol  =         0.00000000
  ---------------------------------------------------
  free energy    TOTEN  =       -89.07072627 eV

  energy without entropy =      -89.07072627  energy(sigma->0) =      -89.07072627


--------------------------------------------------------------------------------------------------------




----------------------------------------- Iteration    1(   8)  ---------------------------------------


    POTLOK:  cpu time    0.4962: real time    0.4965
    SETDIJ:  cpu time    0.0152: real time    0.0152
    EDDIAG:  cpu time    1.0036: real time    1.0042
  RMM-DIIS:  cpu time    6.4553: real time    6.4595
    ORTHCH:  cpu time    0.1004: real time    0.1005
       DOS:  cpu time    0.0002: real time    0.0002
    CHARGE:  cpu time    0.3044: real time    0.3051
    MIXING:  cpu time    0.0141: real time    0.0141
    --------------------------------------------
      LOOP:  cpu time    8.3933: real time    8.4021

 eigenvalue-minimisations  :   978
 total energy-change (2. order) : 0.1888339E+00  (-0.9044035E+00)
 number of electron     329.9999947 magnetization      -1.1628632
 augmentation part      210.8323389 magnetization      -0.8570495

 Broyden mixing:
  rms(total) = 0.80819E+00    rms(broyden)= 0.80726E+00
  rms(prec ) = 0.10889E+01
  weight for this iteration     100.00

 eigenvalues of (default mixing * dielectric matrix)
  average eigenvalue GAMMA=   0.9266
  1.4994  0.8161  0.4642

 Free energy of the ion-electron system (eV)
  ---------------------------------------------------
  alpha Z        PSCENC =        58.30494272
  Ewald energy   TEWEN  =     91511.15705205
  -Hartree energ DENC   =   -129440.05644362
  -exchange      EXHF   =         0.00000000
  -V(xc)+E(xc)   XCENC  =      1331.65170776
  PAW double counting   =     37782.84746515   -40945.82121669
  entropy T*S    EENTRO =         0.00000000
  eigenvalues    EBANDS =     -2115.03293952
  atomic energy  EATOM  =     41728.06753974
  Solvation  Ediel_sol  =         0.00000000
  ---------------------------------------------------
  free energy    TOTEN  =       -88.88189242 eV

  energy without entropy =      -88.88189242  energy(sigma->0) =      -88.88189242


--------------------------------------------------------------------------------------------------------




----------------------------------------- Iteration    1(   9)  ---------------------------------------


    POTLOK:  cpu time    0.4966: real time    0.4967
    SETDIJ:  cpu time    0.0154: real time    0.0154
    EDDIAG:  cpu time    1.0033: real time    1.0040
  RMM-DIIS:  cpu time    6.5796: real time    6.5848
    ORTHCH:  cpu time    0.0988: real time    0.0988
       DOS:  cpu time    0.0002: real time    0.0002
    CHARGE:  cpu time    0.3040: real time    0.3042
    MIXING:  cpu time    0.0149: real time    0.0149
    --------------------------------------------
      LOOP:  cpu time    8.5169: real time    8.5260

 eigenvalue-minimisations  :   979
 total energy-change (2. order) : 0.2460168E+01  (-0.1778618E+00)
 number of electron     329.9999978 magnetization      -0.3770470
 augmentation part      211.5820463 magnetization      -0.1856158

 Broyden mixing:
  rms(total) = 0.25139E+00    rms(broyden)= 0.25069E+00
  rms(prec ) = 0.27820E+00
  weight for this iteration     100.00

 eigenvalues of (default mixing * dielectric matrix)
  average eigenvalue GAMMA=   0.9299
  1.4889  0.9153  0.9153  0.4003

 Free energy of the ion-electron system (eV)
  ---------------------------------------------------
  alpha Z        PSCENC =        58.30494272
  Ewald energy   TEWEN  =     91511.15705205
  -Hartree energ DENC   =   -129420.05623271
  -exchange      EXHF   =         0.00000000
  -V(xc)+E(xc)   XCENC  =      1331.07892451
  PAW double counting   =     37881.62222609   -41049.32121032
  entropy T*S    EENTRO =         0.00000000
  eigenvalues    EBANDS =     -2127.27496616
  atomic energy  EATOM  =     41728.06753974
  Solvation  Ediel_sol  =         0.00000000
  ---------------------------------------------------
  free energy    TOTEN  =       -86.42172408 eV

  energy without entropy =      -86.42172408  energy(sigma->0) =      -86.42172408


--------------------------------------------------------------------------------------------------------




----------------------------------------- Iteration    1(  10)  ---------------------------------------


    POTLOK:  cpu time    0.4952: real time    0.4959
    SETDIJ:  cpu time    0.0153: real time    0.0153
    EDDIAG:  cpu time    1.0036: real time    1.0045
  RMM-DIIS:  cpu time    6.5122: real time    6.5178
    ORTHCH:  cpu time    0.0995: real time    0.1002
       DOS:  cpu time    0.0001: real time    0.0001
    CHARGE:  cpu time    0.3056: real time    0.3060
    MIXING:  cpu time    0.0171: real time    0.0171
    --------------------------------------------
      LOOP:  cpu time    8.4527: real time    8.4635

 eigenvalue-minimisations  :   978
 total energy-change (2. order) : 0.9336801E-01  (-0.2790836E-01)
 number of electron     329.9999975 magnetization       0.0123530
 augmentation part      211.4480037 magnetization       0.1239560

 Broyden mixing:
  rms(total) = 0.16996E+00    rms(broyden)= 0.16993E+00
  rms(prec ) = 0.18370E+00
  weight for this iteration     100.00

 eigenvalues of (default mixing * dielectric matrix)
  average eigenvalue GAMMA=   1.0186
  1.8096  1.3153  0.9593  0.6031  0.4056

 Free energy of the ion-electron system (eV)
  ---------------------------------------------------
  alpha Z        PSCENC =        58.30494272
  Ewald energy   TEWEN  =     91511.15705205
  -Hartree energ DENC   =   -129422.26727620
  -exchange      EXHF   =         0.00000000
  -V(xc)+E(xc)   XCENC  =      1330.98497359
  PAW double counting   =     38050.58892776   -41228.46925554
  entropy T*S    EENTRO =         0.00000000
  eigenvalues    EBANDS =     -2114.69526018
  atomic energy  EATOM  =     41728.06753974
  Solvation  Ediel_sol  =         0.00000000
  ---------------------------------------------------
  free energy    TOTEN  =       -86.32835607 eV

  energy without entropy =      -86.32835607  energy(sigma->0) =      -86.32835607


--------------------------------------------------------------------------------------------------------




----------------------------------------- Iteration    1(  11)  ---------------------------------------


    POTLOK:  cpu time    0.5044: real time    0.5087
    SETDIJ:  cpu time    0.0154: real time    0.0161
    EDDIAG:  cpu time    1.0033: real time    1.0051
  RMM-DIIS:  cpu time    6.4057: real time    6.4244
    ORTHCH:  cpu time    0.0990: real time    0.0991
       DOS:  cpu time    0.0002: real time    0.0002
    CHARGE:  cpu time    0.3062: real time    0.3063
    MIXING:  cpu time    0.0173: real time    0.0173
    --------------------------------------------
      LOOP:  cpu time    8.3547: real time    8.5423

 eigenvalue-minimisations  :   978
 total energy-change (2. order) : 0.5203821E-01  (-0.1357340E-01)
 number of electron     329.9999974 magnetization      -0.1011347
 augmentation part      211.2434392 magnetization      -0.0782064

 Broyden mixing:
  rms(total) = 0.13306E+00    rms(broyden)= 0.13304E+00
  rms(prec ) = 0.14431E+00
  weight for this iteration     100.00

 eigenvalues of (default mixing * dielectric matrix)
  average eigenvalue GAMMA=   1.0076
  2.0691  1.1772  1.1772  0.6093  0.6093  0.4036

 Free energy of the ion-electron system (eV)
  ---------------------------------------------------
  alpha Z        PSCENC =        58.30494272
  Ewald energy   TEWEN  =     91511.15705205
  -Hartree energ DENC   =   -129428.90646599
  -exchange      EXHF   =         0.00000000
  -V(xc)+E(xc)   XCENC  =      1330.73407501
  PAW double counting   =     38308.53792184   -41501.13998180
  entropy T*S    EENTRO =         0.00000000
  eigenvalues    EBANDS =     -2093.03140144
  atomic energy  EATOM  =     41728.06753974
  Solvation  Ediel_sol  =         0.00000000
  ---------------------------------------------------
  free energy    TOTEN  =       -86.27631786 eV

  energy without entropy =      -86.27631786  energy(sigma->0) =      -86.27631786


--------------------------------------------------------------------------------------------------------




----------------------------------------- Iteration    1(  12)  ---------------------------------------


    POTLOK:  cpu time    0.4949: real time    0.4957
    SETDIJ:  cpu time    0.0159: real time    0.0159
    EDDIAG:  cpu time    1.0025: real time    1.0035
  RMM-DIIS:  cpu time    6.5608: real time    6.5757
    ORTHCH:  cpu time    0.0990: real time    0.0990
       DOS:  cpu time    0.0002: real time    0.0002
    CHARGE:  cpu time    0.3055: real time    0.3059
    MIXING:  cpu time    0.0176: real time    0.0176
    --------------------------------------------
      LOOP:  cpu time    8.5004: real time    8.5202

 eigenvalue-minimisations  :   979
 total energy-change (2. order) : 0.1973951E-01  (-0.3507115E-02)
 number of electron     329.9999974 magnetization      -0.1192601
 augmentation part      211.2613371 magnetization      -0.1269919

 Broyden mixing:
  rms(total) = 0.99934E-01    rms(broyden)= 0.99924E-01
  rms(prec ) = 0.10723E+00
  weight for this iteration     100.00

 eigenvalues of (default mixing * dielectric matrix)
  average eigenvalue GAMMA=   1.1544
  2.8919  1.3664  1.3664  0.7745  0.7745  0.3989  0.5084

 Free energy of the ion-electron system (eV)
  ---------------------------------------------------
  alpha Z        PSCENC =        58.30494272
  Ewald energy   TEWEN  =     91511.15705205
  -Hartree energ DENC   =   -129426.88450920
  -exchange      EXHF   =         0.00000000
  -V(xc)+E(xc)   XCENC  =      1330.39946532
  PAW double counting   =     38445.69619645   -41645.16688766
  entropy T*S    EENTRO =         0.00000000
  eigenvalues    EBANDS =     -2087.83037777
  atomic energy  EATOM  =     41728.06753974
  Solvation  Ediel_sol  =         0.00000000
  ---------------------------------------------------
  free energy    TOTEN  =       -86.25657835 eV

  energy without entropy =      -86.25657835  energy(sigma->0) =      -86.25657835


--------------------------------------------------------------------------------------------------------




----------------------------------------- Iteration    1(  13)  ---------------------------------------


    POTLOK:  cpu time    0.4935: real time    0.4941
    SETDIJ:  cpu time    0.0152: real time    0.0152
    EDDIAG:  cpu time    1.0016: real time    1.0028
  RMM-DIIS:  cpu time    6.4005: real time    6.4077
    ORTHCH:  cpu time    0.0997: real time    0.0998
       DOS:  cpu time    0.0002: real time    0.0002
    CHARGE:  cpu time    0.3055: real time    0.3059
    MIXING:  cpu time    0.0186: real time    0.0186
    --------------------------------------------
      LOOP:  cpu time    8.3382: real time    8.3704

 eigenvalue-minimisations  :   978
 total energy-change (2. order) : 0.1495162E-01  (-0.1823479E-02)
 number of electron     329.9999974 magnetization       0.0332840
 augmentation part      211.3077823 magnetization       0.0095694

 Broyden mixing:
  rms(total) = 0.53242E-01    rms(broyden)= 0.53237E-01
  rms(prec ) = 0.56111E-01
  weight for this iteration     100.00

 eigenvalues of (default mixing * dielectric matrix)
  average eigenvalue GAMMA=   1.3371
  4.2654  1.7277  1.2571  1.0318  0.7693  0.7693  0.3994  0.4767

 Free energy of the ion-electron system (eV)
  ---------------------------------------------------
  alpha Z        PSCENC =        58.30494272
  Ewald energy   TEWEN  =     91511.15705205
  -Hartree energ DENC   =   -129423.87905933
  -exchange      EXHF   =         0.00000000
  -V(xc)+E(xc)   XCENC  =      1329.81894134
  PAW double counting   =     38665.13251797   -41875.31946696
  entropy T*S    EENTRO =         0.00000000
  eigenvalues    EBANDS =     -2079.52409425
  atomic energy  EATOM  =     41728.06753974
  Solvation  Ediel_sol  =         0.00000000
  ---------------------------------------------------
  free energy    TOTEN  =       -86.24162672 eV

  energy without entropy =      -86.24162672  energy(sigma->0) =      -86.24162672


--------------------------------------------------------------------------------------------------------




----------------------------------------- Iteration    1(  14)  ---------------------------------------


    POTLOK:  cpu time    0.4941: real time    0.4945
    SETDIJ:  cpu time    0.0153: real time    0.0153
    EDDIAG:  cpu time    1.0034: real time    1.0047
  RMM-DIIS:  cpu time    6.5613: real time    6.5673
    ORTHCH:  cpu time    0.0971: real time    0.0971
       DOS:  cpu time    0.0001: real time    0.0001
    CHARGE:  cpu time    0.3106: real time    0.3107
    MIXING:  cpu time    0.0198: real time    0.0198
    --------------------------------------------
      LOOP:  cpu time    8.5058: real time    8.5164

 eigenvalue-minimisations  :   981
 total energy-change (2. order) : 0.2270898E-02  (-0.8879710E-03)
 number of electron     329.9999974 magnetization       0.0204864
 augmentation part      211.3608137 magnetization       0.0169790

 Broyden mixing:
  rms(total) = 0.17088E-01    rms(broyden)= 0.17081E-01
  rms(prec ) = 0.18592E-01
  weight for this iteration     100.00

 eigenvalues of (default mixing * dielectric matrix)
  average eigenvalue GAMMA=   1.3193
  4.4580  1.8318  1.2756  1.1116  0.8230  0.8230  0.6760  0.3987  0.4762

 Free energy of the ion-electron system (eV)
  ---------------------------------------------------
  alpha Z        PSCENC =        58.30494272
  Ewald energy   TEWEN  =     91511.15705205
  -Hartree energ DENC   =   -129421.43944362
  -exchange      EXHF   =         0.00000000
  -V(xc)+E(xc)   XCENC  =      1329.39708589
  PAW double counting   =     38808.92827260   -42026.01386286
  entropy T*S    EENTRO =         0.00000000
  eigenvalues    EBANDS =     -2074.64094234
  atomic energy  EATOM  =     41728.06753974
  Solvation  Ediel_sol  =         0.00000000
  ---------------------------------------------------
  free energy    TOTEN  =       -86.23935583 eV

  energy without entropy =      -86.23935583  energy(sigma->0) =      -86.23935583


--------------------------------------------------------------------------------------------------------




----------------------------------------- Iteration    1(  15)  ---------------------------------------


    POTLOK:  cpu time    0.4952: real time    0.4956
    SETDIJ:  cpu time    0.0153: real time    0.0153
    EDDIAG:  cpu time    1.0048: real time    1.0058
  RMM-DIIS:  cpu time    6.3904: real time    6.3963
    ORTHCH:  cpu time    0.0998: real time    0.0998
       DOS:  cpu time    0.0002: real time    0.0002
    CHARGE:  cpu time    0.3044: real time    0.3048
    MIXING:  cpu time    0.0211: real time    0.0211
    --------------------------------------------
      LOOP:  cpu time    8.3350: real time    8.3456

 eigenvalue-minimisations  :   978
 total energy-change (2. order) : 0.3296010E-03  (-0.1572314E-03)
 number of electron     329.9999974 magnetization      -0.0135413
 augmentation part      211.3701139 magnetization      -0.0113649

 Broyden mixing:
  rms(total) = 0.91862E-02    rms(broyden)= 0.91837E-02
  rms(prec ) = 0.97817E-02
  weight for this iteration     100.00

 eigenvalues of (default mixing * dielectric matrix)
  average eigenvalue GAMMA=   1.3561
  4.6766  1.9411  1.5571  1.1405  1.1405  0.7902  0.7902  0.6505  0.3988  0.4756

 Free energy of the ion-electron system (eV)
  ---------------------------------------------------
  alpha Z        PSCENC =        58.30494272
  Ewald energy   TEWEN  =     91511.15705205
  -Hartree energ DENC   =   -129419.56503952
  -exchange      EXHF   =         0.00000000
  -V(xc)+E(xc)   XCENC  =      1329.31713662
  PAW double counting   =     38837.28612264   -42055.87449035
  entropy T*S    EENTRO =         0.00000000
  eigenvalues    EBANDS =     -2074.93229013
  atomic energy  EATOM  =     41728.06753974
  Solvation  Ediel_sol  =         0.00000000
  ---------------------------------------------------
  free energy    TOTEN  =       -86.23902622 eV

  energy without entropy =      -86.23902622  energy(sigma->0) =      -86.23902622


--------------------------------------------------------------------------------------------------------




----------------------------------------- Iteration    1(  16)  ---------------------------------------


    POTLOK:  cpu time    0.4942: real time    0.4954
    SETDIJ:  cpu time    0.0154: real time    0.0154
    EDDIAG:  cpu time    1.0027: real time    1.0041
  RMM-DIIS:  cpu time    6.4785: real time    6.4843
    ORTHCH:  cpu time    0.1019: real time    0.1022
       DOS:  cpu time    0.0002: real time    0.0002
    CHARGE:  cpu time    0.3095: real time    0.3097
    MIXING:  cpu time    0.0236: real time    0.0236
    --------------------------------------------
      LOOP:  cpu time    8.4299: real time    8.4417

 eigenvalue-minimisations  :   978
 total energy-change (2. order) : 0.1363198E-03  (-0.4155610E-04)
 number of electron     329.9999974 magnetization      -0.0115041
 augmentation part      211.3557446 magnetization      -0.0110636

 Broyden mixing:
  rms(total) = 0.54529E-02    rms(broyden)= 0.54518E-02
  rms(prec ) = 0.59511E-02
  weight for this iteration     100.00

 eigenvalues of (default mixing * dielectric matrix)
  average eigenvalue GAMMA=   1.3876
  4.7833  2.5780  1.6374  1.2427  1.0474  0.3989  0.4757  0.8520  0.8520  0.7609
  0.6351

 Free energy of the ion-electron system (eV)
  ---------------------------------------------------
  alpha Z        PSCENC =        58.30494272
  Ewald energy   TEWEN  =     91511.15705205
  -Hartree energ DENC   =   -129419.31648964
  -exchange      EXHF   =         0.00000000
  -V(xc)+E(xc)   XCENC  =      1329.30407458
  PAW double counting   =     38849.53607249   -42068.98205001
  entropy T*S    EENTRO =         0.00000000
  eigenvalues    EBANDS =     -2074.31003184
  atomic energy  EATOM  =     41728.06753974
  Solvation  Ediel_sol  =         0.00000000
  ---------------------------------------------------
  free energy    TOTEN  =       -86.23888990 eV

  energy without entropy =      -86.23888990  energy(sigma->0) =      -86.23888990


--------------------------------------------------------------------------------------------------------




----------------------------------------- Iteration    1(  17)  ---------------------------------------


    POTLOK:  cpu time    0.4956: real time    0.4968
    SETDIJ:  cpu time    0.0149: real time    0.0157
    EDDIAG:  cpu time    1.0031: real time    1.0050
  RMM-DIIS:  cpu time    6.4463: real time    6.4520
    ORTHCH:  cpu time    0.1006: real time    0.1013
       DOS:  cpu time    0.0002: real time    0.0002
    CHARGE:  cpu time    0.3083: real time    0.3083
    MIXING:  cpu time    0.0253: real time    0.0253
    --------------------------------------------
      LOOP:  cpu time    8.3983: real time    8.4114

 eigenvalue-minimisations  :   978
 total energy-change (2. order) : 0.3450736E-04  (-0.2350839E-04)
 number of electron     329.9999974 magnetization       0.0001380
 augmentation part      211.3549161 magnetization       0.0008199

 Broyden mixing:
  rms(total) = 0.29032E-02    rms(broyden)= 0.29021E-02
  rms(prec ) = 0.32797E-02
  weight for this iteration     100.00

 eigenvalues of (default mixing * dielectric matrix)
  average eigenvalue GAMMA=   1.4190
  4.8439  3.1616  1.7067  1.3844  1.1013  1.1013  0.3989  0.4759  0.7976  0.7507
  0.6918  0.6136

 Free energy of the ion-electron system (eV)
  ---------------------------------------------------
  alpha Z        PSCENC =        58.30494272
  Ewald energy   TEWEN  =     91511.15705205
  -Hartree energ DENC   =   -129418.01054767
  -exchange      EXHF   =         0.00000000
  -V(xc)+E(xc)   XCENC  =      1329.28159598
  PAW double counting   =     38857.01643055   -42076.98156348
  entropy T*S    EENTRO =         0.00000000
  eigenvalues    EBANDS =     -2075.07430528
  atomic energy  EATOM  =     41728.06753974
  Solvation  Ediel_sol  =         0.00000000
  ---------------------------------------------------
  free energy    TOTEN  =       -86.23885540 eV

  energy without entropy =      -86.23885540  energy(sigma->0) =      -86.23885540


--------------------------------------------------------------------------------------------------------




----------------------------------------- Iteration    1(  18)  ---------------------------------------


    POTLOK:  cpu time    0.4977: real time    0.4989
    SETDIJ:  cpu time    0.0159: real time    0.0159
    EDDIAG:  cpu time    1.0037: real time    1.0053
  RMM-DIIS:  cpu time    6.5806: real time    6.6190
    ORTHCH:  cpu time    0.1003: real time    0.1003
       DOS:  cpu time    0.0002: real time    0.0002
    CHARGE:  cpu time    0.3080: real time    0.3086
    MIXING:  cpu time    0.0261: real time    0.0261
    --------------------------------------------
      LOOP:  cpu time    8.5359: real time    8.5806

 eigenvalue-minimisations  :   980
 total energy-change (2. order) :-0.3568930E-05  (-0.8621352E-05)
 number of electron     329.9999974 magnetization       0.0031415
 augmentation part      211.3557148 magnetization       0.0036133

 Broyden mixing:
  rms(total) = 0.17186E-02    rms(broyden)= 0.17176E-02
  rms(prec ) = 0.20365E-02
  weight for this iteration     100.00

 eigenvalues of (default mixing * dielectric matrix)
  average eigenvalue GAMMA=   1.3994
  4.8604  3.3679  1.8329  1.4420  1.1452  1.1452  0.8234  0.7848  0.7848  0.6519
  0.3988  0.4757  0.4795

 Free energy of the ion-electron system (eV)
  ---------------------------------------------------
  alpha Z        PSCENC =        58.30494272
  Ewald energy   TEWEN  =     91511.15705205
  -Hartree energ DENC   =   -129417.44581088
  -exchange      EXHF   =         0.00000000
  -V(xc)+E(xc)   XCENC  =      1329.27066407
  PAW double counting   =     38859.50493997   -42079.65198287
  entropy T*S    EENTRO =         0.00000000
  eigenvalues    EBANDS =     -2075.44620376
  atomic energy  EATOM  =     41728.06753974
  Solvation  Ediel_sol  =         0.00000000
  ---------------------------------------------------
  free energy    TOTEN  =       -86.23885897 eV

  energy without entropy =      -86.23885897  energy(sigma->0) =      -86.23885897


--------------------------------------------------------------------------------------------------------




----------------------------------------- Iteration    1(  19)  ---------------------------------------


    POTLOK:  cpu time    0.4953: real time    0.4955
    SETDIJ:  cpu time    0.0152: real time    0.0153
    EDDIAG:  cpu time    1.0023: real time    1.0035
  RMM-DIIS:  cpu time    6.5712: real time    6.5769
    ORTHCH:  cpu time    0.0985: real time    0.0985
       DOS:  cpu time    0.0002: real time    0.0002
    CHARGE:  cpu time    0.3055: real time    0.3056
    MIXING:  cpu time    0.0282: real time    0.0282
    --------------------------------------------
      LOOP:  cpu time    8.5204: real time    8.5301

 eigenvalue-minimisations  :   979
 total energy-change (2. order) : 0.2671848E-05  (-0.1874445E-05)
 number of electron     329.9999974 magnetization      -0.0008565
 augmentation part      211.3558719 magnetization      -0.0008050

 Broyden mixing:
  rms(total) = 0.11701E-02    rms(broyden)= 0.11698E-02
  rms(prec ) = 0.12537E-02
  weight for this iteration     100.00

 eigenvalues of (default mixing * dielectric matrix)
  average eigenvalue GAMMA=   1.4137
  4.8411  3.4112  2.0337  1.5242  1.5242  1.1032  1.1032  0.7909  0.7909  0.7142
  0.6108  0.3989  0.4769  0.4679

 Free energy of the ion-electron system (eV)
  ---------------------------------------------------
  alpha Z        PSCENC =        58.30494272
  Ewald energy   TEWEN  =     91511.15705205
  -Hartree energ DENC   =   -129417.35300548
  -exchange      EXHF   =         0.00000000
  -V(xc)+E(xc)   XCENC  =      1329.26787233
  PAW double counting   =     38859.98528871   -42080.17911687
  entropy T*S    EENTRO =         0.00000000
  eigenvalues    EBANDS =     -2075.48942949
  atomic energy  EATOM  =     41728.06753974
  Solvation  Ediel_sol  =         0.00000000
  ---------------------------------------------------
  free energy    TOTEN  =       -86.23885629 eV

  energy without entropy =      -86.23885629  energy(sigma->0) =      -86.23885629


--------------------------------------------------------------------------------------------------------




----------------------------------------- Iteration    1(  20)  ---------------------------------------


    POTLOK:  cpu time    0.4954: real time    0.4959
    SETDIJ:  cpu time    0.0152: real time    0.0152
    EDDIAG:  cpu time    1.0020: real time    1.0029
  RMM-DIIS:  cpu time    6.4192: real time    6.4248
    ORTHCH:  cpu time    0.1001: real time    0.1001
       DOS:  cpu time    0.0002: real time    0.0002
    CHARGE:  cpu time    0.3057: real time    0.3062
    MIXING:  cpu time    0.0307: real time    0.0307
    --------------------------------------------
      LOOP:  cpu time    8.3725: real time    8.3828

 eigenvalue-minimisations  :   976
 total energy-change (2. order) : 0.1169436E-05  (-0.9733454E-06)
 number of electron     329.9999974 magnetization      -0.0005880
 augmentation part      211.3562452 magnetization      -0.0006477

 Broyden mixing:
  rms(total) = 0.58388E-03    rms(broyden)= 0.58369E-03
  rms(prec ) = 0.62646E-03
  weight for this iteration     100.00

 eigenvalues of (default mixing * dielectric matrix)
  average eigenvalue GAMMA=   1.4239
  4.8348  3.5532  2.6023  1.6740  1.3945  1.2145  1.0854  0.8180  0.8180  0.7667
  0.6836  0.3989  0.5806  0.4758  0.4584

 Free energy of the ion-electron system (eV)
  ---------------------------------------------------
  alpha Z        PSCENC =        58.30494272
  Ewald energy   TEWEN  =     91511.15705205
  -Hartree energ DENC   =   -129417.33992502
  -exchange      EXHF   =         0.00000000
  -V(xc)+E(xc)   XCENC  =      1329.26755895
  PAW double counting   =     38859.58630005   -42079.77322518
  entropy T*S    EENTRO =         0.00000000
  eigenvalues    EBANDS =     -2075.50909843
  atomic energy  EATOM  =     41728.06753974
  Solvation  Ediel_sol  =         0.00000000
  ---------------------------------------------------
  free energy    TOTEN  =       -86.23885512 eV

  energy without entropy =      -86.23885512  energy(sigma->0) =      -86.23885512


--------------------------------------------------------------------------------------------------------




----------------------------------------- Iteration    1(  21)  ---------------------------------------


    POTLOK:  cpu time    0.4950: real time    0.4952
    SETDIJ:  cpu time    0.0163: real time    0.0163
    EDDIAG:  cpu time    1.0015: real time    1.0025
  RMM-DIIS:  cpu time    4.4643: real time    4.4688
    ORTHCH:  cpu time    0.0991: real time    0.0992
       DOS:  cpu time    0.0001: real time    0.0001
    --------------------------------------------
      LOOP:  cpu time    6.0800: real time    6.0887

 eigenvalue-minimisations  :   677
 total energy-change (2. order) :-0.7000635E-06  (-0.2246775E-06)
 number of electron     329.9999974 magnetization      -0.0005880
 augmentation part      211.3562452 magnetization      -0.0006477

 Free energy of the ion-electron system (eV)
  ---------------------------------------------------
  alpha Z        PSCENC =        58.30494272
  Ewald energy   TEWEN  =     91511.15705205
  -Hartree energ DENC   =   -129417.33957600
  -exchange      EXHF   =         0.00000000
  -V(xc)+E(xc)   XCENC  =      1329.26789787
  PAW double counting   =     38859.45767283   -42079.65364521
  entropy T*S    EENTRO =         0.00000000
  eigenvalues    EBANDS =     -2075.50073983
  atomic energy  EATOM  =     41728.06753974
  Solvation  Ediel_sol  =         0.00000000
  ---------------------------------------------------
  free energy    TOTEN  =       -86.23885582 eV

  energy without entropy =      -86.23885582  energy(sigma->0) =      -86.23885582


--------------------------------------------------------------------------------------------------------




 average (electrostatic) potential at core
  the test charge radii are     0.9430
  (the norm of the test charge is              1.0000)
       1 -74.3712       2 -74.4457       3 -74.6431       4 -74.7141       5 -74.6141
       6 -74.6222       7 -74.5872       8 -74.9620       9 -74.7546      10 -74.5979
      11 -74.5686      12 -74.8111      13 -74.3792      14 -74.6032      15 -74.4983
      16 -74.6338      17 -74.7717      18 -74.8702      19 -74.9041      20 -74.7558
      21 -74.4034      22 -74.7581      23 -74.5235      24 -74.8768      25 -74.8581
      26 -74.4968      27 -74.6129      28 -74.5759      29 -74.6015      30 -74.5458
 
 
 
 E-fermi :  -3.9665     XC(G=0):  -0.8000     alpha+bet : -0.4213


 spin component 1

 k-point     1 :       0.0000    0.0000    0.0000
  band No.  band energies     occupation 
      1     -11.4196      1.00000
      2     -10.2317      1.00000
      3      -9.9177      1.00000
      4      -9.6306      1.00000
      5      -8.9016      1.00000
      6      -8.7341      1.00000
      7      -8.5936      1.00000
      8      -8.4641      1.00000
      9      -8.3090      1.00000
     10      -8.1907      1.00000
     11      -8.1383      1.00000
     12      -8.0506      1.00000
     13      -8.0302      1.00000
     14      -7.9565      1.00000
     15      -7.8440      1.00000
     16      -7.7597      1.00000
     17      -7.7160      1.00000
     18      -7.6887      1.00000
     19      -7.6002      1.00000
     20      -7.5748      1.00000
     21      -7.5156      1.00000
     22      -7.4162      1.00000
     23      -7.3785      1.00000
     24      -7.3616      1.00000
     25      -7.3272      1.00000
     26      -7.2934      1.00000
     27      -7.2372      1.00000
     28      -7.2138      1.00000
     29      -7.2093      1.00000
     30      -7.1724      1.00000
     31      -7.1612      1.00000
     32      -7.1393      1.00000
     33      -7.1026      1.00000
     34      -7.0822      1.00000
     35      -7.0745      1.00000
     36      -7.0564      1.00000
     37      -7.0186      1.00000
     38      -7.0052      1.00000
     39      -6.9960      1.00000
     40      -6.9882      1.00000
     41      -6.9323      1.00000
     42      -6.9136      1.00000
     43      -6.8951      1.00000
     44      -6.8589      1.00000
     45      -6.8555      1.00000
     46      -6.8168      1.00000
     47      -6.7976      1.00000
     48      -6.7612      1.00000
     49      -6.7399      1.00000
     50      -6.7263      1.00000
     51      -6.7084      1.00000
     52      -6.6857      1.00000
     53      -6.6544      1.00000
     54      -6.6172      1.00000
     55      -6.5879      1.00000
     56      -6.5856      1.00000
     57      -6.5531      1.00000
     58      -6.5448      1.00000
     59      -6.5228      1.00000
     60      -6.5138      1.00000
     61      -6.4604      1.00000
     62      -6.4312      1.00000
     63      -6.4196      1.00000
     64      -6.3974      1.00000
     65      -6.3640      1.00000
     66      -6.3559      1.00000
     67      -6.3409      1.00000
     68      -6.3127      1.00000
     69      -6.3023      1.00000
     70      -6.2884      1.00000
     71      -6.2557      1.00000
     72      -6.2360      1.00000
     73      -6.2238      1.00000
     74      -6.1926      1.00000
     75      -6.1780      1.00000
     76      -6.1740      1.00000
     77      -6.1568      1.00000
     78      -6.1192      1.00000
     79      -6.1141      1.00000
     80      -6.1058      1.00000
     81      -6.0966      1.00000
     82      -6.0606      1.00000
     83      -6.0447      1.00000
     84      -6.0204      1.00000
     85      -5.9926      1.00000
     86      -5.9849      1.00000
     87      -5.9644      1.00000
     88      -5.9547      1.00000
     89      -5.9328      1.00000
     90      -5.9087      1.00000
     91      -5.8995      1.00000
     92      -5.8936      1.00000
     93      -5.8735      1.00000
     94      -5.8587      1.00000
     95      -5.8389      1.00000
     96      -5.8177      1.00000
     97      -5.8158      1.00000
     98      -5.7969      1.00000
     99      -5.7777      1.00000
    100      -5.7685      1.00000
    101      -5.7555      1.00000
    102      -5.7338      1.00000
    103      -5.7249      1.00000
    104      -5.7194      1.00000
    105      -5.7067      1.00000
    106      -5.7026      1.00000
    107      -5.6752      1.00000
    108      -5.6628      1.00000
    109      -5.6590      1.00000
    110      -5.6462      1.00000
    111      -5.6237      1.00000
    112      -5.6089      1.00000
    113      -5.5896      1.00000
    114      -5.5809      1.00000
    115      -5.5765      1.00000
    116      -5.5592      1.00000
    117      -5.5574      1.00000
    118      -5.5451      1.00000
    119      -5.5311      1.00000
    120      -5.5114      1.00000
    121      -5.4999      1.00000
    122      -5.4952      1.00000
    123      -5.4805      1.00000
    124      -5.4702      1.00000
    125      -5.4531      1.00000
    126      -5.4412      1.00000
    127      -5.4305      1.00000
    128      -5.4209      1.00000
    129      -5.4186      1.00000
    130      -5.4086      1.00000
    131      -5.3914      1.00000
    132      -5.3887      1.00000
    133      -5.3794      1.00000
    134      -5.3732      1.00000
    135      -5.3624      1.00000
    136      -5.3578      1.00000
    137      -5.3447      1.00000
    138      -5.3153      1.00000
    139      -5.3089      1.00000
    140      -5.2966      1.00000
    141      -5.2934      1.00000
    142      -5.2842      1.00000
    143      -5.2784      1.00000
    144      -5.2608      1.00000
    145      -5.2489      1.00000
    146      -5.2474      1.00000
    147      -5.2387      1.00000
    148      -5.2152      1.00000
    149      -5.1930      1.00000
    150      -5.1791      1.00000
    151      -5.1569      1.00000
    152      -5.1491      1.00000
    153      -5.1378      1.00000
    154      -5.1256      1.00000
    155      -5.1057      1.00000
    156      -5.0932      1.00000
    157      -5.0741      1.00000
    158      -5.0405      1.00000
    159      -4.9990      1.00000
    160      -4.6758      1.00000
    161      -4.5598      1.00000
    162      -4.4971      1.00000
    163      -4.3528      1.00000
    164      -4.1491      1.00000
    165      -3.9842      1.00000
    166      -3.5545      0.00000
    167      -3.4959      0.00000
    168      -3.2705      0.00000
    169      -3.0376      0.00000
    170      -2.9837      0.00000
    171      -2.8673      0.00000
    172      -2.7042      0.00000
    173      -2.6381      0.00000
    174      -2.5026      0.00000
    175      -2.4205      0.00000
    176      -2.2474      0.00000
    177      -2.1107      0.00000
    178      -1.8518      0.00000
    179      -1.7418      0.00000
    180      -1.6088      0.00000
    181      -1.3807      0.00000
    182      -1.2956      0.00000
    183      -1.0003      0.00000
    184      -0.9429      0.00000
    185      -0.8651      0.00000
    186      -0.7481      0.00000
    187      -0.6878      0.00000
    188      -0.5488      0.00000
    189      -0.4927      0.00000
    190      -0.3781      0.00000
    191      -0.3263      0.00000
    192      -0.0630      0.00000
    193       0.0516      0.00000
    194       0.1687      0.00000
    195       0.2233      0.00000
    196       0.3325      0.00000
    197       0.4063      0.00000
    198       0.4429      0.00000
    199       0.4538      0.00000
    200       0.4785      0.00000
    201       0.5788      0.00000
    202       0.5903      0.00000
    203       0.6063      0.00000
    204       0.6647      0.00000
    205       0.7020      0.00000
    206       0.7289      0.00000
    207       0.7532      0.00000
    208       0.7583      0.00000
    209       0.7809      0.00000
    210       0.7908      0.00000
    211       0.7985      0.00000
    212       0.8202      0.00000
    213       0.8396      0.00000
    214       0.8595      0.00000
    215       0.8906      0.00000
    216       0.9563      0.00000
    217       1.0047      0.00000
    218       1.0344      0.00000
    219       1.0482      0.00000
    220       1.0771      0.00000
    221       1.0784      0.00000
    222       1.0960      0.00000
    223       1.1126      0.00000
    224       1.1583      0.00000
    225       1.1863      0.00000
    226       1.2382      0.00000
    227       1.2503      0.00000
    228       1.3366      0.00000
    229       1.3381      0.00000
    230       1.3698      0.00000
    231       1.4001      0.00000
    232       1.4335      0.00000
    233       1.4766      0.00000
    234       1.4828      0.00000
    235       1.4950      0.00000
    236       1.5166      0.00000
    237       1.5230      0.00000
    238       1.5685      0.00000
    239       1.5740      0.00000
    240       1.6011      0.00000
    241       1.6143      0.00000
    242       1.6257      0.00000
    243       1.6720      0.00000
    244       1.7272      0.00000

 spin component 2

 k-point     1 :       0.0000    0.0000    0.0000
  band No.  band energies     occupation 
      1     -11.4196      1.00000
      2     -10.2317      1.00000
      3      -9.9177      1.00000
      4      -9.6306      1.00000
      5      -8.9016      1.00000
      6      -8.7341      1.00000
      7      -8.5936      1.00000
      8      -8.4641      1.00000
      9      -8.3090      1.00000
     10      -8.1907      1.00000
     11      -8.1383      1.00000
     12      -8.0506      1.00000
     13      -8.0302      1.00000
     14      -7.9566      1.00000
     15      -7.8441      1.00000
     16      -7.7597      1.00000
     17      -7.7160      1.00000
     18      -7.6887      1.00000
     19      -7.6003      1.00000
     20      -7.5748      1.00000
     21      -7.5156      1.00000
     22      -7.4162      1.00000
     23      -7.3785      1.00000
     24      -7.3616      1.00000
     25      -7.3273      1.00000
     26      -7.2934      1.00000
     27      -7.2372      1.00000
     28      -7.2138      1.00000
     29      -7.2093      1.00000
     30      -7.1724      1.00000
     31      -7.1612      1.00000
     32      -7.1394      1.00000
     33      -7.1026      1.00000
     34      -7.0822      1.00000
     35      -7.0746      1.00000
     36      -7.0564      1.00000
     37      -7.0187      1.00000
     38      -7.0052      1.00000
     39      -6.9960      1.00000
     40      -6.9882      1.00000
     41      -6.9323      1.00000
     42      -6.9136      1.00000
     43      -6.8951      1.00000
     44      -6.8589      1.00000
     45      -6.8555      1.00000
     46      -6.8168      1.00000
     47      -6.7976      1.00000
     48      -6.7612      1.00000
     49      -6.7399      1.00000
     50      -6.7264      1.00000
     51      -6.7084      1.00000
     52      -6.6858      1.00000
     53      -6.6545      1.00000
     54      -6.6173      1.00000
     55      -6.5879      1.00000
     56      -6.5856      1.00000
     57      -6.5531      1.00000
     58      -6.5448      1.00000
     59      -6.5228      1.00000
     60      -6.5138      1.00000
     61      -6.4604      1.00000
     62      -6.4312      1.00000
     63      -6.4196      1.00000
     64      -6.3974      1.00000
     65      -6.3640      1.00000
     66      -6.3559      1.00000
     67      -6.3410      1.00000
     68      -6.3127      1.00000
     69      -6.3023      1.00000
     70      -6.2884      1.00000
     71      -6.2557      1.00000
     72      -6.2360      1.00000
     73      -6.2238      1.00000
     74      -6.1926      1.00000
     75      -6.1780      1.00000
     76      -6.1740      1.00000
     77      -6.1568      1.00000
     78      -6.1192      1.00000
     79      -6.1141      1.00000
     80      -6.1058      1.00000
     81      -6.0966      1.00000
     82      -6.0607      1.00000
     83      -6.0447      1.00000
     84      -6.0204      1.00000
     85      -5.9926      1.00000
     86      -5.9850      1.00000
     87      -5.9644      1.00000
     88      -5.9547      1.00000
     89      -5.9328      1.00000
     90      -5.9087      1.00000
     91      -5.8995      1.00000
     92      -5.8936      1.00000
     93      -5.8735      1.00000
     94      -5.8587      1.00000
     95      -5.8389      1.00000
     96      -5.8178      1.00000
     97      -5.8158      1.00000
     98      -5.7970      1.00000
     99      -5.7777      1.00000
    100      -5.7685      1.00000
    101      -5.7555      1.00000
    102      -5.7339      1.00000
    103      -5.7250      1.00000
    104      -5.7194      1.00000
    105      -5.7067      1.00000
    106      -5.7026      1.00000
    107      -5.6752      1.00000
    108      -5.6629      1.00000
    109      -5.6590      1.00000
    110      -5.6463      1.00000
    111      -5.6238      1.00000
    112      -5.6090      1.00000
    113      -5.5896      1.00000
    114      -5.5809      1.00000
    115      -5.5766      1.00000
    116      -5.5592      1.00000
    117      -5.5575      1.00000
    118      -5.5451      1.00000
    119      -5.5311      1.00000
    120      -5.5114      1.00000
    121      -5.4999      1.00000
    122      -5.4953      1.00000
    123      -5.4805      1.00000
    124      -5.4702      1.00000
    125      -5.4532      1.00000
    126      -5.4412      1.00000
    127      -5.4305      1.00000
    128      -5.4209      1.00000
    129      -5.4186      1.00000
    130      -5.4087      1.00000
    131      -5.3914      1.00000
    132      -5.3888      1.00000
    133      -5.3794      1.00000
    134      -5.3732      1.00000
    135      -5.3624      1.00000
    136      -5.3578      1.00000
    137      -5.3447      1.00000
    138      -5.3153      1.00000
    139      -5.3089      1.00000
    140      -5.2966      1.00000
    141      -5.2934      1.00000
    142      -5.2842      1.00000
    143      -5.2784      1.00000
    144      -5.2608      1.00000
    145      -5.2489      1.00000
    146      -5.2474      1.00000
    147      -5.2388      1.00000
    148      -5.2153      1.00000
    149      -5.1930      1.00000
    150      -5.1792      1.00000
    151      -5.1569      1.00000
    152      -5.1491      1.00000
    153      -5.1378      1.00000
    154      -5.1256      1.00000
    155      -5.1058      1.00000
    156      -5.0932      1.00000
    157      -5.0741      1.00000
    158      -5.0406      1.00000
    159      -4.9991      1.00000
    160      -4.6758      1.00000
    161      -4.5598      1.00000
    162      -4.4971      1.00000
    163      -4.3528      1.00000
    164      -4.1491      1.00000
    165      -3.9842      1.00000
    166      -3.5545      0.00000
    167      -3.4959      0.00000
    168      -3.2705      0.00000
    169      -3.0376      0.00000
    170      -2.9837      0.00000
    171      -2.8673      0.00000
    172      -2.7042      0.00000
    173      -2.6381      0.00000
    174      -2.5026      0.00000
    175      -2.4205      0.00000
    176      -2.2474      0.00000
    177      -2.1107      0.00000
    178      -1.8518      0.00000
    179      -1.7418      0.00000
    180      -1.6088      0.00000
    181      -1.3807      0.00000
    182      -1.2956      0.00000
    183      -1.0003      0.00000
    184      -0.9429      0.00000
    185      -0.8651      0.00000
    186      -0.7481      0.00000
    187      -0.6878      0.00000
    188      -0.5488      0.00000
    189      -0.4927      0.00000
    190      -0.3781      0.00000
    191      -0.3263      0.00000
    192      -0.0630      0.00000
    193       0.0516      0.00000
    194       0.1687      0.00000
    195       0.2234      0.00000
    196       0.3325      0.00000
    197       0.4063      0.00000
    198       0.4429      0.00000
    199       0.4538      0.00000
    200       0.4786      0.00000
    201       0.5789      0.00000
    202       0.5903      0.00000
    203       0.6063      0.00000
    204       0.6647      0.00000
    205       0.7020      0.00000
    206       0.7289      0.00000
    207       0.7532      0.00000
    208       0.7584      0.00000
    209       0.7810      0.00000
    210       0.7908      0.00000
    211       0.7985      0.00000
    212       0.8203      0.00000
    213       0.8396      0.00000
    214       0.8596      0.00000
    215       0.8907      0.00000
    216       0.9563      0.00000
    217       1.0047      0.00000
    218       1.0345      0.00000
    219       1.0483      0.00000
    220       1.0772      0.00000
    221       1.0784      0.00000
    222       1.0960      0.00000
    223       1.1126      0.00000
    224       1.1584      0.00000
    225       1.1863      0.00000
    226       1.2383      0.00000
    227       1.2503      0.00000
    228       1.3366      0.00000
    229       1.3381      0.00000
    230       1.3699      0.00000
    231       1.4001      0.00000
    232       1.4335      0.00000
    233       1.4765      0.00000
    234       1.4828      0.00000
    235       1.4947      0.00000
    236       1.5170      0.00000
    237       1.5228      0.00000
    238       1.5683      0.00000
    239       1.5765      0.00000
    240       1.6007      0.00000
    241       1.6204      0.00000
    242       1.6259      0.00000
    243       1.6541      0.00000
    244       1.6980      0.00000


--------------------------------------------------------------------------------------------------------


 soft charge-density along one line, spin component           1
         0         1         2         3         4         5         6         7         8         9
 total charge-density along one line
 
[...]
  0.000  -0.000   0.000   0.000   0.000  -0.000  -0.000   0.000   0.000   0.000  -0.000   0.000   0.000  -0.000   0.000  -0.000
  0.000   0.000   0.000   0.000   0.000  -0.000   0.000   0.000   0.000   0.000  -0.000   0.000  -0.000  -0.000  -0.000   0.000
  0.000   0.000   0.000   0.000   0.000  -0.000   0.000  -0.000   0.000   0.000  -0.000   0.000   0.000  -0.000   0.000   0.000
  0.000   0.000   0.000   0.000   0.000  -0.000   0.000   0.000   0.000   0.000   0.000  -0.000  -0.000   0.000   0.000   0.000
 -0.000  -0.000  -0.000  -0.000  -0.000  -0.000  -0.000  -0.000   0.000   0.000  -0.000   0.000   0.000  -0.000  -0.000  -0.000
 -0.000  -0.000   0.000   0.000   0.000  -0.000   0.000  -0.000  -0.000  -0.000   0.000  -0.000  -0.000   0.000   0.000  -0.000
  0.000   0.000   0.000  -0.000   0.000  -0.000  -0.000  -0.000   0.000  -0.000   0.000   0.000  -0.000  -0.000  -0.000   0.000
 -0.000   0.000   0.000   0.000   0.000   0.000  -0.000   0.000  -0.000   0.000   0.000  -0.000  -0.000  -0.000   0.000   0.000
 -0.000   0.000   0.000   0.000   0.000   0.000  -0.000  -0.000   0.000  -0.000  -0.000   0.000   0.000  -0.000  -0.000  -0.000
  0.000  -0.000  -0.000  -0.000   0.000  -0.000   0.000   0.000   0.000  -0.000   0.000   0.000  -0.000   0.000  -0.000   0.000
 -0.000   0.000   0.000   0.000  -0.000   0.000  -0.000   0.000  -0.000   0.000   0.000   0.000   0.000  -0.000   0.000  -0.000
 -0.000   0.000  -0.000   0.000  -0.000   0.000  -0.000  -0.000  -0.000   0.000  -0.000   0.000   0.000   0.000  -0.000  -0.000
 -0.000  -0.000  -0.000  -0.000   0.000  -0.000   0.000  -0.000  -0.000  -0.000   0.000  -0.000   0.000   0.000   0.000  -0.000
 -0.000   0.000  -0.000   0.000   0.000  -0.000   0.000  -0.000   0.000  -0.000  -0.000   0.000  -0.000   0.000  -0.000   0.000
  0.000  -0.000   0.000   0.000   0.000  -0.000  -0.000   0.000   0.000  -0.000   0.000  -0.000  -0.000  -0.000   0.000   0.000
  0.000   0.000   0.000   0.000  -0.000   0.000   0.000  -0.000   0.000   0.000  -0.000   0.000  -0.000  -0.000  -0.000   0.000
  0.000   0.000   0.000  -0.000  -0.000   0.000  -0.000   0.000   0.000   0.000   0.000  -0.000   0.000  -0.000   0.000  -0.000


------------------------ aborting loop because EDIFF is reached ----------------------------------------


 


 total charge     
 
# of ion     s       p       d       tot
----------------------------------------
  1        0.479   0.137   9.281   9.897
  2        0.481   0.175   9.250   9.906
  3        0.469   0.223   9.232   9.923
  4        0.454   0.292   9.220   9.966
  5        0.460   0.288   9.217   9.965
  6        0.455   0.254   9.222   9.931
  7        0.457   0.261   9.221   9.939
  8        0.450   0.326   9.198   9.974
  9        0.458   0.281   9.208   9.947
 10        0.469   0.176   9.266   9.911
 11        0.456   0.248   9.221   9.925
 12        0.419   0.343   9.236   9.998
 13        0.475   0.198   9.248   9.921
 14        0.449   0.243   9.229   9.921
 15        0.484   0.174   9.253   9.911
 16        0.465   0.227   9.244   9.936
 17        0.461   0.272   9.205   9.938
 18        0.458   0.310   9.204   9.971
 19        0.431   0.366   9.235  10.032
 20        0.455   0.297   9.207   9.959
 21        0.471   0.199   9.251   9.921
 22        0.469   0.307   9.199   9.975
 23        0.472   0.218   9.245   9.936
 24        0.449   0.316   9.204   9.969
 25        0.442   0.311   9.211   9.964
 26        0.482   0.177   9.256   9.915
 27        0.461   0.214   9.238   9.913
 28        0.456   0.241   9.233   9.929
 29        0.465   0.181   9.267   9.912
 30        0.481   0.184   9.252   9.917
------------------------------------------------
tot       13.833   7.437 276.954 298.225
 


 magnetization (x)
 
# of ion     s       p       d       tot
----------------------------------------
  1        0.000   0.000  -0.000   0.000
  2        0.000  -0.000  -0.000   0.000
  3        0.000  -0.000   0.000   0.000
  4        0.000  -0.000   0.000   0.000
  5       -0.000   0.000  -0.000  -0.000
  6       -0.000  -0.000  -0.000  -0.000
  7       -0.000  -0.000   0.000  -0.000
  8        0.000   0.000   0.000   0.000
  9       -0.000  -0.000   0.000   0.000
 10        0.000  -0.000   0.000   0.000
 11       -0.000   0.000  -0.000  -0.000
 12        0.000   0.000  -0.000  -0.000
 13        0.000  -0.000  -0.000  -0.000
 14        0.000  -0.000   0.000   0.000
 15       -0.000   0.000   0.000   0.000
 16        0.000  -0.000   0.000   0.000
 17       -0.000   0.000   0.000   0.000
 18        0.000  -0.000   0.000   0.000
 19        0.000   0.000  -0.000   0.000
 20        0.000   0.000   0.000   0.000
 21       -0.000   0.000  -0.000  -0.000
 22        0.000  -0.000   0.000   0.000
 23       -0.000  -0.000   0.000  -0.000
 24        0.000   0.000  -0.000   0.000
 25        0.000   0.000   0.000   0.000
 26        0.000  -0.000   0.000   0.000
 27       -0.000  -0.000   0.000   0.000
 28       -0.000   0.000   0.000   0.000
 29        0.000   0.000   0.000   0.000
 30       -0.000  -0.000   0.000   0.000
------------------------------------------------
tot       -0.000   0.000   0.000   0.000
 
    CHARGE:  cpu time    0.3115: real time    0.3117
    FORLOC:  cpu time    0.0487: real time    0.0487
    FORNL :  cpu time    6.9498: real time    6.9533
    STRESS:  cpu time    6.9234: real time    6.9270
    FORCOR:  cpu time    0.5230: real time    0.5234
    FORHAR:  cpu time    0.0975: real time    0.0975
    MIXING:  cpu time    0.0224: real time    0.0224
    OFIELD:  cpu time    0.0001: real time    0.0001

  FORCE on cell =-STRESS in cart. coord.  units (eV):
  Direction    XX          YY          ZZ          XY          YZ          ZX
  --------------------------------------------------------------------------------------
  Alpha Z    58.30494    58.30494    58.30494
  Ewald   21145.11384 32383.88966 38263.07900   343.88244 -4238.46892 -7817.79265
  Hartree 34445.17019 44761.22115 50489.74341   305.41810 -3939.57744 -7241.78088
  E(xc)   -1926.81207 -1925.47239 -1925.33434     0.06091    -0.45129    -0.78105
  Local  -58565.77848-80102.62932-91722.59920  -649.06411  8177.61904 15056.25053
  n-local  -700.65497  -698.76941  -695.86940     0.13736    -1.60976    -2.49292
  augment  2827.04426  2817.54503  2821.89960    -0.08026     1.09323     2.83571
  Kinetic  2709.07611  2697.46771  2702.02955    -0.44875     1.60914     3.87883
  Fock        0.00000     0.00000     0.00000     0.00000     0.00000     0.00000
  -------------------------------------------------------------------------------------
  Total      -8.53618    -8.44262    -8.74644    -0.09431     0.21401     0.11757
  in kB      -1.21150    -1.19823    -1.24135    -0.01339     0.03037     0.01669
  external pressure =       -1.22 kB  Pullay stress =        0.00 kB


 VOLUME and BASIS-vectors are now :
 -----------------------------------------------------------------------------
  energy-cutoff  :      295.45
  volume of cell :    11288.84
      direct lattice vectors                 reciprocal lattice vectors
    22.432781173  0.000000000  0.000000000     0.044577620  0.000000000  0.000000000
     0.000000000 22.432781173  0.000000000     0.000000000  0.044577620  0.000000000
     0.000000000  0.000000000 22.432781173     0.000000000  0.000000000  0.044577620

  length of vectors
    22.432781173 22.432781173 22.432781173     0.044577620  0.044577620  0.044577620


 FORCES acting on ions
    electron-ion (+dipol)            ewald-force                    non-local-force                 convergence-correction
 -----------------------------------------------------------------------------------------------
   -.667E+03 0.115E+04 -.136E+04   0.661E+03 -.114E+04 0.135E+04   0.534E+01 -.613E+01 0.777E+01   -.182E-02 -.126E-02 -.453E-02
   0.704E+03 0.160E+04 -.844E+03   -.701E+03 -.159E+04 0.840E+03   -.282E+01 -.658E+01 0.428E+01   -.588E-03 0.218E-02 0.841E-03
   0.817E+03 0.173E+04 0.236E+03   -.816E+03 -.172E+04 -.235E+03   -.153E+01 -.502E+01 -.161E+01   0.336E-02 0.356E-02 0.381E-02
   -.715E+03 0.156E+04 -.325E+03   0.715E+03 -.156E+04 0.325E+03   -.648E+00 -.285E+01 0.380E+00   0.159E-03 0.314E-02 -.633E-02
   0.340E+03 0.419E+03 -.173E+04   -.339E+03 -.417E+03 0.173E+04   -.451E+00 -.190E+01 0.119E+01   -.546E-02 0.105E-02 0.131E-01
   -.131E+04 0.174E+03 -.144E+04   0.131E+04 -.174E+03 0.144E+04   0.433E+01 -.119E-02 0.376E+01   -.743E-02 -.932E-03 -.438E-02
   0.165E+04 0.746E+03 -.514E+03   -.164E+04 -.744E+03 0.515E+03   -.363E+01 -.238E+01 -.430E+00   0.415E-02 0.287E-02 0.307E-02
   -.440E+03 0.135E+04 0.510E+03   0.441E+03 -.135E+04 -.509E+03   -.101E+01 -.492E+00 -.146E+01   0.508E-02 0.515E-02 -.682E-03
   -.168E+04 0.850E+03 -.309E+03   0.167E+04 -.847E+03 0.310E+03   0.351E+01 -.236E+01 -.433E+00   -.239E-02 0.305E-04 -.477E-02
   0.951E+03 0.133E+04 0.115E+04   -.946E+03 -.132E+04 -.115E+04   -.495E+01 -.598E+01 -.565E+01   0.727E-02 -.199E-02 0.326E-02
   -.287E+03 -.864E+03 -.168E+04   0.286E+03 0.861E+03 0.168E+04   0.962E-01 0.280E+01 0.305E+01   -.329E-02 -.255E-02 -.211E-03
   0.879E+02 0.141E+03 -.432E+03   -.883E+02 -.140E+03 0.432E+03   0.425E+00 -.508E+00 0.550E+00   -.247E-02 0.352E-03 -.118E-02
   0.132E+04 -.177E+03 -.147E+04   -.131E+04 0.177E+03 0.147E+04   -.481E+01 0.246E+00 0.586E+01   -.220E-02 -.118E-02 0.712E-03
   -.154E+04 0.799E+03 0.859E+03   0.154E+04 -.796E+03 -.857E+03   0.334E+01 -.321E+01 -.185E+01   -.762E-03 0.116E-02 -.452E-02
   -.368E+03 0.125E+04 0.146E+04   0.366E+03 -.124E+04 -.146E+04   0.192E+01 -.688E+01 -.414E+01   0.381E-03 0.543E-02 -.437E-02
   -.202E+04 -.398E+03 -.918E+02   0.201E+04 0.396E+03 0.908E+02   0.712E+01 0.221E+01 0.110E+01   -.363E-03 -.140E-02 -.263E-02
   -.135E+04 -.916E+03 -.105E+04   0.135E+04 0.913E+03 0.104E+04   0.182E+01 0.292E+01 0.209E+01   -.181E-02 -.337E-02 -.102E-02
   0.155E+04 0.429E+03 0.636E+03   -.155E+04 -.428E+03 -.635E+03   -.154E+01 -.102E+01 -.114E+01   -.773E-03 -.711E-03 -.117E-02
   -.435E+03 -.296E+03 0.424E+03   0.434E+03 0.296E+03 -.423E+03   0.124E+01 0.962E+00 -.479E+00   0.647E-02 -.561E-03 -.505E-04
   0.848E+03 0.107E+03 0.156E+04   -.847E+03 -.105E+03 -.156E+04   -.590E+00 -.175E+01 -.213E+01   0.383E-02 0.306E-02 0.165E-02
   -.477E+03 -.442E+02 0.190E+04   0.475E+03 0.439E+02 -.189E+04   0.168E+01 0.245E+00 -.662E+01   -.830E-03 0.479E-02 -.218E-02
   0.170E+04 -.372E+03 -.161E+03   -.169E+04 0.370E+03 0.161E+03   -.926E+00 0.213E+01 0.627E+00   -.806E-02 -.337E-02 -.177E-02
   -.140E+04 -.854E+03 0.116E+04   0.140E+04 0.850E+03 -.116E+04   0.383E+01 0.391E+01 -.292E+01   0.315E-02 -.612E-03 -.293E-02
   0.127E+04 -.683E+03 0.934E+03   -.127E+04 0.682E+03 -.934E+03   -.150E+01 0.117E+01 -.674E-01   0.104E-01 -.830E-02 0.822E-02
   -.928E+02 -.147E+04 -.583E+03   0.938E+02 0.147E+04 0.584E+03   -.970E+00 0.174E+01 -.459E+00   0.675E-02 -.109E-02 0.309E-02
   0.825E+03 -.137E+04 -.116E+04   -.824E+03 0.136E+04 0.115E+04   -.161E+01 0.707E+01 0.456E+01   -.108E-02 -.238E-02 -.410E-02
   -.104E+04 -.171E+04 0.553E+02   0.103E+04 0.170E+04 -.560E+02   0.312E+01 0.485E+01 0.764E+00   0.207E-02 -.329E-02 -.648E-03
   0.174E+03 -.115E+04 0.156E+04   -.174E+03 0.115E+04 -.156E+04   -.134E+00 0.417E+01 -.310E+01   0.272E-02 -.206E-02 0.142E-02
   0.133E+04 -.147E+04 0.826E+02   -.132E+04 0.146E+04 -.827E+02   -.725E+01 0.578E+01 0.122E+00   0.454E-02 -.148E-02 -.329E-02
   0.271E+03 -.186E+04 0.621E+03   -.271E+03 0.186E+04 -.619E+03   0.613E+00 0.779E+01 -.207E+01   0.583E-02 -.305E-02 -.191E-02
 -----------------------------------------------------------------------------------------------
   -.396E+01 -.802E+00 -.156E+01   -.568E-12 0.136E-11 0.114E-11   0.402E+01 0.914E+00 0.155E+01   0.268E-01 -.678E-02 -.135E-01
 
 
 POSITION                                       TOTAL-FORCE (eV/Angst)
 -----------------------------------------------------------------------------------
     12.09034      8.21662     14.87522         0.001051      0.001859      0.008583
      9.91509      7.74076     13.69052         0.003074     -0.003701      0.003357
      9.81950      8.12340     11.25201        -0.001609      0.004403     -0.006495
     11.87314      8.61070     12.54561         0.003347     -0.000885     -0.004975
     10.50026      9.96256     14.58412         0.009007     -0.002556     -0.011676
     12.79006     10.45865     13.93943         0.002837      0.000370      0.002118
      8.81203      9.75394     12.78833        -0.003277     -0.001696     -0.005750
     11.70413      9.34568     10.14032        -0.009406      0.003630      0.001140
     13.50609     10.18937     11.58046        -0.001779      0.005538     -0.001224
      9.86045      8.63078      8.78602        -0.000378      0.010317      0.005374
     11.09144     12.33569     14.15461         0.006784      0.001471     -0.005524
     11.03757     10.93516     12.13347         0.010306      0.005227     -0.001747
      8.72501     11.59308     14.44586         0.006499     -0.002348      0.006205
     13.72651     10.41453      8.99915         0.003530     -0.013551      0.008451
     12.04178      9.12054      7.67972        -0.000717     -0.003826      0.005820
     14.58211     12.13909     10.62758         0.002725     -0.002774      0.008870
     13.07323     12.45586     12.51744        -0.009082      0.002072     -0.003716
      9.34631     10.37903     10.41322         0.011985     -0.002562      0.005246
     12.14831     11.87960     10.16116        -0.017069     -0.006672      0.006355
     10.60973     10.95469      8.34180        -0.011434      0.000320      0.002754
     12.58353     11.39553      7.02260         0.002791     -0.005812     -0.006054
      8.78366     12.11003     12.09767         0.010279      0.000153     -0.012857
     13.88937     12.83006      8.44466        -0.000717      0.007527     -0.002401
      9.76933     12.71026      9.86414        -0.008481      0.006188     -0.000809
     10.98812     13.56398     11.92986        -0.004012     -0.004408     -0.004089
      9.19368     13.85267     13.69181         0.004294      0.002132      0.006623
     12.97021     14.09302     10.41806        -0.001822      0.006410      0.000052
     11.50435     13.29923      8.20925        -0.004286      0.002229     -0.006505
      8.82524     14.45915     11.30812         0.000809     -0.005823      0.004328
     10.73115     14.93806      9.84948        -0.005248     -0.003230     -0.001453
 -----------------------------------------------------------------------------------
    total drift:                                0.087622      0.104407     -0.017637


--------------------------------------------------------------------------------------------------------



  FREE ENERGIE OF THE ION-ELECTRON SYSTEM (eV)
  ---------------------------------------------------
  free  energy   TOTEN  =       -86.24887517 eV

  energy  without entropy=      -86.24887517  energy(sigma->0) =      -86.24887517
 
 d Force = 0.6211005E-03[ 0.316E-03, 0.927E-03]  d Energy = 0.6332781E-03-0.122E-04
 d Force = 0.5294702E+02[ 0.529E+02, 0.530E+02]  d Ewald  = 0.5294703E+02-0.613E-05


--------------------------------------------------------------------------------------------------------


    POTLOK:  cpu time    0.5160: real time    0.5166


--------------------------------------------------------------------------------------------------------


 Conjugate gradient step on ions:
 trial-energy change:   -0.000633  1 .order   -0.000621   -0.000927   -0.000316
  (g-gl).g = 0.579E-03      g.g   = 0.501E-03  gl.gl    = 0.922E-03
 g(Force)  = 0.501E-03   g(Stress)= 0.000E+00 ortho     =-0.727E-04
 gamma     =   0.62842
 trial     =   2.03650
 opt step  =   2.93410  (harmonic =   3.08877) maximal distance =0.00488341
 next E    =   -86.248946   (d E  =  -0.00070)


--------------------------------------------------------------------------------------------------------


  
 reached required accuracy - stopping structural energy minimisation
     LOOP+:  cpu time  118.1287: real time  118.3197
    4ORBIT:  cpu time    0.0000: real time    0.0000
 


 total charge     
 
# of ion     s       p       d       tot
----------------------------------------
  1        0.479   0.137   9.281   9.897
  2        0.481   0.175   9.250   9.906
  3        0.469   0.223   9.232   9.923
  4        0.454   0.292   9.220   9.966
  5        0.460   0.288   9.217   9.965
  6        0.455   0.254   9.222   9.931
  7        0.457   0.261   9.221   9.939
  8        0.450   0.326   9.198   9.974
  9        0.458   0.281   9.208   9.947
 10        0.469   0.176   9.266   9.911
 11        0.456   0.248   9.221   9.925
 12        0.419   0.343   9.236   9.998
 13        0.475   0.198   9.248   9.921
 14        0.449   0.243   9.229   9.921
 15        0.484   0.174   9.253   9.911
 16        0.465   0.227   9.244   9.936
 17        0.461   0.272   9.205   9.938
 18        0.458   0.310   9.204   9.971
 19        0.431   0.366   9.235  10.032
 20        0.455   0.297   9.207   9.959
 21        0.471   0.199   9.251   9.921
 22        0.469   0.307   9.199   9.975
 23        0.472   0.218   9.245   9.936
 24        0.449   0.316   9.204   9.969
 25        0.442   0.311   9.211   9.964
 26        0.482   0.177   9.256   9.915
 27        0.461   0.214   9.238   9.913
 28        0.456   0.241   9.233   9.929
 29        0.465   0.181   9.267   9.912
 30        0.481   0.184   9.252   9.917
------------------------------------------------
tot       13.833   7.437 276.954 298.225
 


 magnetization (x)
 
# of ion     s       p       d       tot
----------------------------------------
  1        0.000   0.000  -0.000   0.000
  2        0.000  -0.000  -0.000   0.000
  3        0.000  -0.000   0.000   0.000
  4        0.000  -0.000   0.000   0.000
  5       -0.000   0.000  -0.000  -0.000
  6       -0.000  -0.000  -0.000  -0.000
  7       -0.000  -0.000   0.000  -0.000
  8        0.000   0.000   0.000   0.000
  9       -0.000  -0.000   0.000   0.000
 10        0.000  -0.000   0.000   0.000
 11       -0.000   0.000  -0.000  -0.000
 12        0.000   0.000  -0.000  -0.000
 13        0.000  -0.000  -0.000  -0.000
 14        0.000  -0.000   0.000   0.000
 15       -0.000   0.000   0.000   0.000
 16        0.000  -0.000   0.000   0.000
 17       -0.000   0.000   0.000   0.000
 18        0.000  -0.000   0.000   0.000
 19        0.000   0.000  -0.000   0.000
 20        0.000   0.000   0.000   0.000
 21       -0.000   0.000  -0.000  -0.000
 22        0.000  -0.000   0.000   0.000
 23       -0.000  -0.000   0.000  -0.000
 24        0.000   0.000  -0.000   0.000
 25        0.000   0.000   0.000   0.000
 26        0.000  -0.000   0.000   0.000
 27       -0.000  -0.000   0.000   0.000
 28       -0.000   0.000   0.000   0.000
 29        0.000   0.000   0.000   0.000
 30       -0.000  -0.000   0.000   0.000
------------------------------------------------
tot       -0.000   0.000   0.000   0.000
 

 total amount of memory used by VASP on root node   104545. kBytes
========================================================================

   base      :      30000. kBytes
   nonl-proj :       6771. kBytes
   fftplans  :      13174. kBytes
   grid      :      33251. kBytes
   one-center:         77. kBytes
   wavefun   :      21272. kBytes
 
  
  
 General timing and accounting informations for this job:
 ========================================================
  
                  Total CPU time used (sec):     1396.449
                            User time (sec):     1366.058
                          System time (sec):       30.391
                         Elapsed time (sec):     1401.595
  
                   Maximum memory used (kb):      189580.
                   Average memory used (kb):           0.
  
                          Minor page faults:      2129052
                          Major page faults:            0
                 Voluntary context switches:         4420
