 vasp.5.4.4.18Apr17-6-g9f103f2a35 (build Jan 23 2020 13:04:52) gamma-only       
  
 executed on           IFC91_ompi date 2020.12.30  13:40:20
 running on   44 total cores
 distrk:  each k-point on   44 cores,    1 groups
 distr:  one band on NCORES_PER_BAND=  11 cores,    4 groups


--------------------------------------------------------------------------------------------------------


 INCAR:
 POTCAR:    PAW_PBE Cu 22Jun2005                  
 POTCAR:    PAW_PBE Cu 22Jun2005                  
   VRHFIN =Cu: d10 p1                                                           
   LEXCH  = PE                                                                  
   EATOM  =  1390.9808 eV,  102.2342 Ry                                         
                                                                                
   TITEL  = PAW_PBE Cu 22Jun2005                                                
   LULTRA =        F    use ultrasoft PP ?                                      
   IUNSCR =        1    unscreen: 0-lin 1-nonlin 2-no                           
   RPACOR =    2.000    partial core radius                                     
   POMASS =   63.546; ZVAL   =   11.000    mass and valenz                      
   RCORE  =    2.300    outmost cutoff radius                                   
   RWIGS  =    2.200; RWIGS  =    1.164    wigner-seitz radius (au A)           
   ENMAX  =  295.446; ENMIN  =  221.585 eV                                      
   ICORE  =        3    local potential                                         
   LCOR   =        T    correct aug charges                                     
   LPAW   =        T    paw PP                                                  
   EAUG   =  586.980                                                            
   DEXC   =    0.000                                                            
   RMAX   =    2.344    core radius for proj-oper                               
   RAUG   =    1.300    factor for augmentation sphere                          
   RDEP   =    2.302    radius for radial grids                                 
   RDEPT  =    1.771    core radius for aug-charge                              
                                                                                
   Atomic configuration                                                         
    9 entries                                                                   
     n  l   j            E        occ.                                          
     1  0  0.50     -8850.2468   2.0000                                         
     2  0  0.50     -1062.3498   2.0000                                         
     2  1  1.50      -916.8226   6.0000                                         
     3  0  0.50      -114.6929   2.0000                                         
     3  1  1.50       -72.1325   6.0000                                         
     3  2  2.50        -5.0394  10.0000                                         
     4  0  0.50        -4.6097   1.0000                                         
     4  1  0.50        -4.0817   0.0000                                         
     4  3  2.50        -1.3606   0.0000                                         
   Description                                                                  
     l       E           TYP  RCUT    TYP  RCUT                                 
     2     -5.0393973     23  2.200                                             
     2     10.8846608     23  2.200                                             
     0     -4.6097109     23  2.200                                             
     0      8.2520465     23  2.200                                             
     1     -2.7211652     23  2.200                                             
     1     21.7055443     23  2.200                                             
     3      2.7211652     23  2.300                                             
  local pseudopotential read in
  partial core-charges read in
  partial kinetic energy density read in
  atomic valenz-charges read in
  non local Contribution for L=           2  read in
    real space projection operators read in
  non local Contribution for L=           2  read in
    real space projection operators read in
  non local Contribution for L=           0  read in
    real space projection operators read in
  non local Contribution for L=           0  read in
    real space projection operators read in
  non local Contribution for L=           1  read in
    real space projection operators read in
  non local Contribution for L=           1  read in
    real space projection operators read in
    PAW grid and wavefunctions read in
 
   number of l-projection  operators is LMAX  =           6
   number of lm-projection operators is LMMAX =          18
 

 ----------------------------------------------------------------------------- 
|                                                                             |
|  ADVICE TO THIS USER RUNNING 'VASP/VAMP'   (HEAR YOUR MASTER'S VOICE ...):  |
|                                                                             |
|      You have a (more or less) 'large supercell' and for larger cells       |
|      it might be more efficient to use real space projection opertators     |
|      So try LREAL= Auto  in the INCAR   file.                               |
|      Mind:          For very  accurate calculation you might also keep the  |
|      reciprocal projection scheme          (i.e. LREAL=.FALSE.)             |
|                                                                             |
 ----------------------------------------------------------------------------- 

  PAW_PBE Cu 22Jun2005                  :
 energy of atom  1       EATOM=-1390.9808
 kinetic energy error for atom=    0.0452 (will be added to EATOM!!)
 
 
 POSCAR: unknown system                          
  positions in direct lattice
  No initial velocities read in
 exchange correlation table for  LEXCH =        8
   RHO(1)=    0.500       N(1)  =     2000
   RHO(2)=  100.500       N(2)  =     4000
 


--------------------------------------------------------------------------------------------------------


 ion  position               nearest neighbor table
   1  0.509  0.501  0.357-   9 2.38   2 2.40   7 2.49  10 2.57   6 2.58   4 2.65  14 2.72
   2  0.575  0.420  0.345-   3 2.38   1 2.40  10 2.41  14 2.47
   3  0.518  0.337  0.372-   2 2.38  11 2.40   5 2.42  14 2.45
   4  0.562  0.598  0.391-   9 2.33   8 2.49  10 2.58  13 2.59   1 2.65   6 2.66
   5  0.425  0.376  0.405-   3 2.42   7 2.43  16 2.44  11 2.49  12 2.51  14 2.63
   6  0.448  0.582  0.405-   9 2.40   7 2.48  18 2.51   1 2.58  15 2.58   4 2.66
   7  0.432  0.478  0.430-  15 2.35  12 2.36   5 2.43   6 2.48   9 2.48   1 2.49  14 2.55  19 2.59
                            24 2.77  16 2.79
   8  0.524  0.636  0.485-  21 2.45   4 2.49   9 2.53  18 2.55  22 2.56  25 2.58  13 2.58
   9  0.523  0.530  0.455-   4 2.33  19 2.36   1 2.38  10 2.38   6 2.40  21 2.41   7 2.48  17 2.53
                             8 2.53  13 2.54  14 2.58  18 2.60
  10  0.609  0.497  0.407-   9 2.38   2 2.41  13 2.55   1 2.57   4 2.58  17 2.59  14 2.75
  11  0.491  0.320  0.472-  16 2.40   3 2.40  20 2.45   5 2.49  14 2.49
  12  0.343  0.431  0.450-   7 2.36  16 2.48   5 2.51  24 2.52  15 2.53
  13  0.619  0.576  0.485-  21 2.49  22 2.53   9 2.54  23 2.54  10 2.55   8 2.58   4 2.59  17 2.59

  14  0.525  0.419  0.441-   3 2.45   2 2.47  11 2.49   7 2.55   9 2.58  19 2.58  17 2.60   5 2.63
                            20 2.65   1 2.72  10 2.75
  15  0.354  0.541  0.451-   7 2.35  24 2.46  18 2.50  12 2.53   6 2.58
  16  0.421  0.388  0.510-  11 2.40   5 2.44  19 2.45  12 2.48  24 2.51  27 2.56  20 2.63   7 2.79

  17  0.593  0.470  0.515-  23 2.51   9 2.53  21 2.55  19 2.56  26 2.57  10 2.59  13 2.59  14 2.60
                            20 2.64
  18  0.436  0.574  0.513-  25 2.48  15 2.50   6 2.51  24 2.51  28 2.55   8 2.55  21 2.56   9 2.60
                            19 2.61
  19  0.483  0.472  0.530-  27 2.34  20 2.35   9 2.36  24 2.41  21 2.41  16 2.45  28 2.51  26 2.51
                            17 2.56  14 2.58   7 2.59  18 2.61
  20  0.528  0.382  0.550-  19 2.35  11 2.45  27 2.54  26 2.59  16 2.63  17 2.64  14 2.65
  21  0.538  0.558  0.555-  22 2.35  23 2.36  29 2.36  25 2.38   9 2.41  19 2.41   8 2.45  26 2.47
                            13 2.49  28 2.50  17 2.55  18 2.56
  22  0.595  0.641  0.571-  21 2.35  23 2.52  13 2.53   8 2.56  29 2.63  25 2.64
  23  0.633  0.540  0.589-  21 2.36  29 2.51  17 2.51  22 2.52  13 2.54  26 2.62
  24  0.379  0.484  0.538-  19 2.41  15 2.46  16 2.51  18 2.51  12 2.52  28 2.66  27 2.69   7 2.77

  25  0.481  0.638  0.588-  21 2.38  30 2.43  18 2.48   8 2.58  28 2.58  22 2.64  29 2.69
  26  0.548  0.470  0.618-  21 2.47  19 2.51  27 2.57  17 2.57  29 2.58  20 2.59  23 2.62  28 2.66

  27  0.446  0.424  0.613-  19 2.34  28 2.50  20 2.54  16 2.56  26 2.57  24 2.69
  28  0.450  0.533  0.615-  30 2.40  21 2.50  27 2.50  19 2.51  18 2.55  25 2.58  24 2.66  26 2.66
                            29 2.74
  29  0.554  0.576  0.655-  21 2.36  30 2.40  23 2.51  26 2.58  22 2.63  25 2.69  28 2.74
  30  0.460  0.608  0.687-  29 2.40  28 2.40  25 2.43
 
  LATTYP: Found a simple cubic cell.
 ALAT       =    22.9672390000
  
  Lattice vectors:
  
 A1 = (  22.9672390000,   0.0000000000,   0.0000000000)
 A2 = (   0.0000000000,  22.9672390000,   0.0000000000)
 A3 = (   0.0000000000,   0.0000000000,  22.9672390000)


Analysis of symmetry for initial positions (statically):
=====================================================================
 Subroutine PRICEL returns:
 Original cell was already a primitive cell.
 

 Routine SETGRP: Setting up the symmetry group for a 
 simple cubic supercell.


 Subroutine GETGRP returns: Found  1 space group operations
 (whereof  1 operations were pure point group operations)
 out of a pool of 48 trial point group operations.


The static configuration has the point symmetry C_1 .


Analysis of symmetry for dynamics (positions and initial velocities):
=====================================================================
 Subroutine PRICEL returns:
 Original cell was already a primitive cell.
 

 Routine SETGRP: Setting up the symmetry group for a 
 simple cubic supercell.


 Subroutine GETGRP returns: Found  1 space group operations
 (whereof  1 operations were pure point group operations)
 out of a pool of 48 trial point group operations.


The dynamic configuration has the point symmetry C_1 .


Analysis of structural, dynamic, and magnetic symmetry:
=====================================================================
 Subroutine PRICEL returns:
 Original cell was already a primitive cell.
 

 Routine SETGRP: Setting up the symmetry group for a 
 simple cubic supercell.


 Subroutine GETGRP returns: Found  1 space group operations
 (whereof  1 operations were pure point group operations)
 out of a pool of 48 trial point group operations.


The magnetic configuration has the point symmetry C_1 .


 Subroutine INISYM returns: Found  1 space group operations
 (whereof  1 operations are pure point group operations),
 and found     1 'primitive' translations

 
 
 KPOINTS: Gamma-point only                        
  k-points in reciprocal lattice
Space group operators:
 irot       det(A)        alpha          n_x          n_y          n_z        tau_x        tau_y        tau_z
    1     1.000000     0.000000     1.000000     0.000000     0.000000     0.000000     0.000000     0.000000


--------------------------------------------------------------------------------------------------------




 Dimension of arrays:
   k-points           NKPTS =      1   k-points in BZ     NKDIM =      1   number of bands    NBANDS=    244
   number of dos      NEDOS =    301   number of ions     NIONS =     30
   non local maximal  LDIM  =      6   non local SUM 2l+1 LMDIM =     18
   total plane-waves  NPLWV = 941192
   max r-space proj   IRMAX =      1   max aug-charges    IRDMAX=   2450
   dimension x,y,z NGX =    98 NGY =   98 NGZ =   98
   dimension x,y,z NGXF=   196 NGYF=  196 NGZF=  196
   support grid    NGXF=   196 NGYF=  196 NGZF=  196
   ions per type =              30
   NGX,Y,Z   is equivalent  to a cutoff of   7.09,  7.09,  7.09 a.u.
   NGXF,Y,Z  is equivalent  to a cutoff of  14.19, 14.19, 14.19 a.u.

 SYSTEM =  unknown system                          
 POSCAR =  unknown system                          

 Startparameter for this run:
   NWRITE =      2    write-flag & timer
   PREC   = normal    normal or accurate (medium, high low for compatibility)
   ISTART =      0    job   : 0-new  1-cont  2-samecut
   ICHARG =      2    charge: 1-file 2-atom 10-const
   ISPIN  =      2    spin polarized calculation?
   LNONCOLLINEAR =      F non collinear calculations
   LSORBIT =      F    spin-orbit coupling
   INIWAV =      1    electr: 0-lowe 1-rand  2-diag
   LASPH  =      F    aspherical Exc in radial PAW
   METAGGA=      F    non-selfconsistent MetaGGA calc.

 Electronic Relaxation 1
   ENCUT  =  295.4 eV  21.71 Ry    4.66 a.u.  32.19 32.19 32.19*2*pi/ulx,y,z
   ENINI  =  295.4     initial cutoff
   ENAUG  =  587.0 eV  augmentation charge cutoff
   NELM   =     60;   NELMIN=  2; NELMDL= -5     # of ELM steps 
   EDIFF  = 0.1E-04   stopping-criterion for ELM
   LREAL  =      F    real-space projection
   NLSPLINE    = F    spline interpolate recip. space projectors
   LCOMPAT=      F    compatible to vasp.4.4
   GGA_COMPAT  = T    GGA compatible to vasp.4.4-vasp.4.6
   LMAXPAW     = -100 max onsite density
   LMAXMIX     =    2 max onsite mixed and CHGCAR
   VOSKOWN=      0    Vosko Wilk Nusair interpolation
   ROPT   =    0.00000
 Ionic relaxation
   EDIFFG = -.1E+00   stopping-criterion for IOM
   NSW    =    101    number of steps for IOM
   NBLOCK =      1;   KBLOCK =    101    inner block; outer block 
   IBRION =      2    ionic relax: 0-MD 1-quasi-New 2-CG
   NFREE  =      1    steps in history (QN), initial steepest desc. (CG)
   ISIF   =      2    stress and relaxation
   IWAVPR =     11    prediction:  0-non 1-charg 2-wave 3-comb
   ISYM   =      2    0-nonsym 1-usesym 2-fastsym
   LCORR  =      T    Harris-Foulkes like correction to forces

   POTIM  = 0.5000    time-step for ionic-motion
   TEIN   =    0.0    initial temperature
   TEBEG  =    0.0;   TEEND  =   0.0 temperature during run
   SMASS  =  -3.00    Nose mass-parameter (am)
   estimated Nose-frequenzy (Omega)   =  0.10E-29 period in steps =****** mass=  -0.121E-25a.u.
   SCALEE = 1.0000    scale energy and forces
   NPACO  =    256;   APACO  = 16.0  distance and # of slots for P.C.
   PSTRESS=    0.0 pullay stress

  Mass of Ions in am
   POMASS =  63.55
  Ionic Valenz
   ZVAL   =  11.00
  Atomic Wigner-Seitz radii
   RWIGS  =  -1.00
  virtual crystal weights 
   VCA    =   1.00
   NELECT =     330.0000    total number of electrons
   NUPDOWN=      -1.0000    fix difference up-down

 DOS related values:
   EMIN   =  10.00;   EMAX   =-10.00  energy-range for DOS
   EFERMI =   0.00
   ISMEAR =     0;   SIGMA  =   0.00  broadening in eV -4-tet -1-fermi 0-gaus

 Electronic relaxation 2 (details)
   IALGO  =     38    algorithm
   LDIAG  =      T    sub-space diagonalisation (order eigenvalues)
   LSUBROT=      F    optimize rotation matrix (better conditioning)
   TURBO    =      0    0=normal 1=particle mesh
   IRESTART =      0    0=no restart 2=restart with 2 vectors
   NREBOOT  =      0    no. of reboots
   NMIN     =      0    reboot dimension
   EREF     =   0.00    reference energy to select bands
   IMIX   =      4    mixing-type and parameters
     AMIX     =   0.40;   BMIX     =  1.00
     AMIX_MAG =   1.60;   BMIX_MAG =  1.00
     AMIN     =   0.10
     WC   =   100.;   INIMIX=   1;  MIXPRE=   1;  MAXMIX= -45

 Intra band minimization:
   WEIMIN = 0.0010     energy-eigenvalue tresh-hold
   EBREAK =  0.10E-07  absolut break condition
   DEPER  =   0.30     relativ break condition  

   TIME   =   0.40     timestep for ELM

  volume/ion in A,a.u.               =     403.84      2725.22
  Fermi-wavevector in a.u.,A,eV,Ry     =   0.492573  0.930828  3.301158  0.242628
  Thomas-Fermi vector in A             =   1.496543
 
 Write flags
   LWAVE        =      F    write WAVECAR
   LDOWNSAMPLE  =      F    k-point downsampling of WAVECAR
   LCHARG       =      F    write CHGCAR
   LVTOT        =      F    write LOCPOT, total local potential
   LVHAR        =      F    write LOCPOT, Hartree potential only
   LELF         =      F    write electronic localiz. function (ELF)
   LORBIT       =     11    0 simple, 1 ext, 2 COOP (PROOUT), +10 PAW based schemes


 Dipole corrections
   LMONO  =      F    monopole corrections only (constant potential shift)
   LDIPOL =      F    correct potential (dipole corrections)
   IDIPOL =      0    1-x, 2-y, 3-z, 4-all directions 
   EPSILON=  1.0000000 bulk dielectric constant

 Exchange correlation treatment:
   GGA     =    PE    GGA type
   LEXCH   =     8    internal setting for exchange type
   VOSKOWN=      0    Vosko Wilk Nusair interpolation
   LHFCALC =     F    Hartree Fock is set to
   LHFONE  =     F    Hartree Fock one center treatment
   AEXX    =    0.0000 exact exchange contribution

 Linear response parameters
   LEPSILON=     F    determine dielectric tensor
   LRPA    =     F    only Hartree local field effects (RPA)
   LNABLA  =     F    use nabla operator in PAW spheres
   LVEL    =     F    velocity operator in full k-point grid
   LINTERFAST=   F  fast interpolation
   KINTER  =     0    interpolate to denser k-point grid
   CSHIFT  =0.1000    complex shift for real part using Kramers Kronig
   OMEGAMAX=  -1.0    maximum frequency
   DEG_THRESHOLD= 0.2000000E-02 threshold for treating states as degnerate
   RTIME   =   -0.100 relaxation time in fs
  (WPLASMAI=    0.000 imaginary part of plasma frequency in eV, 0.658/RTIME)
   DFIELD  = 0.0000000 0.0000000 0.0000000 field for delta impulse in time
 
 Orbital magnetization related:
   ORBITALMAG=     F  switch on orbital magnetization
   LCHIMAG   =     F  perturbation theory with respect to B field
   DQ        =  0.001000  dq finite difference perturbation B field
   LLRAUG    =     F  two centre corrections for induced B field



--------------------------------------------------------------------------------------------------------


 conjugate gradient relaxation of ions
 charge density and potential will be updated during run
 spin polarized calculation
 Variant of blocked Davidson
 Davidson routine will perform the subspace rotation
 perform sub-space diagonalisation
    after iterative eigenvector-optimisation
 modified Broyden-mixing scheme, WC =      100.0
 initial mixing is a Kerker type mixing with AMIX =  0.4000 and BMIX =      1.0000
 Hartree-type preconditioning will be used
 using additional bands           79
 reciprocal scheme for non local part
 use partial core corrections
 calculate Harris-corrections to forces 
   (improved forces if not selfconsistent)
 use gradient corrections 
 use of overlap-Matrix (Vanderbilt PP)
 Gauss-broadening in eV      SIGMA  =   0.00


--------------------------------------------------------------------------------------------------------


  energy-cutoff  :      295.45
  volume of cell :    12115.08
      direct lattice vectors                 reciprocal lattice vectors
    22.967239000  0.000000000  0.000000000     0.043540279  0.000000000  0.000000000
     0.000000000 22.967239000  0.000000000     0.000000000  0.043540279  0.000000000
     0.000000000  0.000000000 22.967239000     0.000000000  0.000000000  0.043540279

  length of vectors
    22.967239000 22.967239000 22.967239000     0.043540279  0.043540279  0.043540279


 
 k-points in units of 2pi/SCALE and weight: Gamma-point only                        
   0.00000000  0.00000000  0.00000000       1.000
 
 k-points in reciprocal lattice and weights: Gamma-point only                        
   0.00000000  0.00000000  0.00000000       1.000
 
 position of ions in fractional coordinates (direct lattice) 
   0.50909722  0.50077711  0.35724008
   0.57457186  0.42011818  0.34537823
   0.51811187  0.33730845  0.37233527
   0.56164507  0.59780826  0.39055005
   0.42523227  0.37550125  0.40481557
   0.44781546  0.58164057  0.40497620
   0.43189607  0.47794392  0.42998014
   0.52386956  0.63603024  0.48455091
   0.52300607  0.52993432  0.45549813
   0.60905176  0.49749152  0.40738170
   0.49061826  0.32045592  0.47163801
   0.34261588  0.43090864  0.44955048
   0.61884457  0.57600863  0.48542038
   0.52522873  0.41865620  0.44076378
   0.35366571  0.54070080  0.45060707
   0.42065257  0.38764767  0.51016572
   0.59318084  0.47017509  0.51547370
   0.43613985  0.57413987  0.51319699
   0.48272485  0.47194091  0.53023340
   0.52769470  0.38228323  0.55034686
   0.53796127  0.55767097  0.55540378
   0.59460076  0.64145631  0.57061486
   0.63332502  0.54043985  0.58912971
   0.37879766  0.48440871  0.53817371
   0.48090287  0.63764234  0.58819988
   0.54792160  0.47048676  0.61789564
   0.44633051  0.42392681  0.61255955
   0.45038827  0.53278059  0.61502234
   0.55412338  0.57597146  0.65542790
   0.45998545  0.60774543  0.68746997
 
 position of ions in cartesian coordinates  (Angst):
  11.69255753 11.50146757  8.20481830
  13.19632923  9.64895465  7.93238435
  11.89959915  7.74704379  8.55151313
  12.89943656 13.73000518  8.96985634
   9.76641118  8.62422695  9.29749595
  10.28508470 13.35867798  9.30118517
   9.91946026 10.97705224  9.87545664
  12.03183739 14.60785853 11.12879656
  12.01200541 12.17112818 10.46153442
  13.98823734 11.42600664  9.35643287
  11.26814684  7.35998770 10.83222290
   7.86894080  9.89678172 10.32493332
  14.21315114 13.22932787 11.14876588
  12.06305377  9.61537700 10.12312708
   8.12272489 12.41840450 10.34920027
   9.66122811  8.90319668 11.71709802
  13.62372612 10.79862366 11.83900767
  10.01692817 13.18640761 11.78671792
  11.08685700 10.83917967 12.17799722
  12.11969029  8.77999031 12.63994787
  12.35548506 12.80816245 12.75609136
  13.65633776 14.73248038 13.10544787
  14.54572710 12.41241120 13.53068285
   8.69993639 11.12553062 12.36036422
  11.04501115 14.64488402 13.50932722
  12.58424634 10.80578186 14.19135684
  10.25097950  9.73642836 14.06880159
  10.34417504 12.23649915 14.12536507
  12.72668410 13.22847418 15.05336923
  10.56459577 13.95823454 15.78928711
 


--------------------------------------------------------------------------------------------------------


 use parallel FFT for orbitals z direction half grid
 k-point  1 :   0.0000 0.0000 0.0000  plane waves:   69925

 maximum and minimum number of plane-waves per node :      6368     6349

 maximum number of plane-waves:     69925
 maximum index in each direction: 
   IXMAX=   32   IYMAX=   32   IZMAX=   32
   IXMIN=  -32   IYMIN=  -32   IZMIN=    0


 parallel 3D FFT for wavefunctions:
    minimum data exchange during FFTs selected (reduces bandwidth)
 parallel 3D FFT for charge:
    minimum data exchange during FFTs selected (reduces bandwidth)


 total amount of memory used by VASP MPI-rank0    75592. kBytes
=======================================================================

   base      :      30000. kBytes
   nonl-proj :       3966. kBytes
   fftplans  :       8237. kBytes
   grid      :      20882. kBytes
   one-center:         46. kBytes
   wavefun   :      12461. kBytes
 
     INWAV:  cpu time    0.0000: real time    0.0003
 Broyden mixing: mesh for mixing (old mesh)
   NGX = 65   NGY = 65   NGZ = 65
  (NGX  =196   NGY  =196   NGZ  =196)
  gives a total of 274625 points

 initial charge density was supplied:
 charge density of overlapping atoms calculated
 number of electron     330.0000000 magnetization      90.0000000
 keeping initial charge density in first step


--------------------------------------------------------------------------------------------------------


 Maximum index for augmentation-charges          208 (set IRDMAX)


--------------------------------------------------------------------------------------------------------


 First call to EWALD:  gamma=   0.077
 Maximum number of real-space cells 3x 3x 3
 Maximum number of reciprocal cells 3x 3x 3

    FEWALD:  cpu time    0.0000: real time    0.0015


--------------------------------------- Iteration      1(   1)  ---------------------------------------


    POTLOK:  cpu time    0.3920: real time    0.3972
    SETDIJ:  cpu time    0.0080: real time    0.0087
     EDDAV:  cpu time    5.7320: real time    5.7387
       DOS:  cpu time    0.0000: real time    0.0003
    --------------------------------------------
      LOOP:  cpu time    6.1320: real time    6.1450

 eigenvalue-minimisations  :   992
 total energy-change (2. order) : 0.2150491E+04  (-0.6920061E+04)
 number of electron     330.0000000 magnetization      90.0000000
 augmentation part      330.0000000 magnetization      90.0000000

 Free energy of the ion-electron system (eV)
  ---------------------------------------------------
  alpha Z        PSCENC =        54.32858120
  Ewald energy   TEWEN  =     94504.86748549
  -Hartree energ DENC   =   -132538.18571770
  -exchange      EXHF   =         0.00000000
  -V(xc)+E(xc)   XCENC  =      1383.24799242
  PAW double counting   =     36816.51539408   -39986.87630570
  entropy T*S    EENTRO =        -0.00000000
  eigenvalues    EBANDS =       188.52607253
  atomic energy  EATOM  =     41728.06753974
  Solvation  Ediel_sol  =         0.00000000
  ---------------------------------------------------
  free energy    TOTEN  =      2150.49104205 eV

  energy without entropy =     2150.49104205  energy(sigma->0) =     2150.49104205


--------------------------------------------------------------------------------------------------------




--------------------------------------- Iteration      1(   2)  ---------------------------------------


     EDDAV:  cpu time    5.9400: real time    5.9512
       DOS:  cpu time    0.0000: real time    0.0003
    --------------------------------------------
      LOOP:  cpu time    5.9400: real time    5.9515

 eigenvalue-minimisations  :  1040
 total energy-change (2. order) :-0.2007185E+04  (-0.1785577E+04)
 number of electron     330.0000000 magnetization      90.0000000
 augmentation part      330.0000000 magnetization      90.0000000

 Free energy of the ion-electron system (eV)
  ---------------------------------------------------
  alpha Z        PSCENC =        54.32858120
  Ewald energy   TEWEN  =     94504.86748549
  -Hartree energ DENC   =   -132538.18571770
  -exchange      EXHF   =         0.00000000
  -V(xc)+E(xc)   XCENC  =      1383.24799242
  PAW double counting   =     36816.51539408   -39986.87630570
  entropy T*S    EENTRO =         0.00000000
  eigenvalues    EBANDS =     -1818.65846417
  atomic energy  EATOM  =     41728.06753974
  Solvation  Ediel_sol  =         0.00000000
  ---------------------------------------------------
  free energy    TOTEN  =       143.30650535 eV

  energy without entropy =      143.30650535  energy(sigma->0) =      143.30650535


--------------------------------------------------------------------------------------------------------




--------------------------------------- Iteration      1(   3)  ---------------------------------------


     EDDAV:  cpu time    6.5560: real time    6.5575
       DOS:  cpu time    0.0000: real time    0.0003
    --------------------------------------------
      LOOP:  cpu time    6.5560: real time    6.5578

 eigenvalue-minimisations  :  1176
 total energy-change (2. order) :-0.1902770E+03  (-0.1806351E+03)
 number of electron     330.0000000 magnetization      90.0000000
 augmentation part      330.0000000 magnetization      90.0000000

 Free energy of the ion-electron system (eV)
  ---------------------------------------------------
  alpha Z        PSCENC =        54.32858120
  Ewald energy   TEWEN  =     94504.86748549
  -Hartree energ DENC   =   -132538.18571770
  -exchange      EXHF   =         0.00000000
  -V(xc)+E(xc)   XCENC  =      1383.24799242
  PAW double counting   =     36816.51539408   -39986.87630570
  entropy T*S    EENTRO =        -0.00000000
  eigenvalues    EBANDS =     -2008.93543367
  atomic energy  EATOM  =     41728.06753974
  Solvation  Ediel_sol  =         0.00000000
  ---------------------------------------------------
  free energy    TOTEN  =       -46.97046415 eV

  energy without entropy =      -46.97046415  energy(sigma->0) =      -46.97046415


--------------------------------------------------------------------------------------------------------




--------------------------------------- Iteration      1(   4)  ---------------------------------------


     EDDAV:  cpu time    6.7320: real time    6.7498
       DOS:  cpu time    0.0000: real time    0.0003
    --------------------------------------------
      LOOP:  cpu time    6.7320: real time    6.7501

 eigenvalue-minimisations  :  1224
 total energy-change (2. order) :-0.1205355E+02  (-0.1148644E+02)
 number of electron     330.0000000 magnetization      90.0000000
 augmentation part      330.0000000 magnetization      90.0000000

 Free energy of the ion-electron system (eV)
  ---------------------------------------------------
  alpha Z        PSCENC =        54.32858120
  Ewald energy   TEWEN  =     94504.86748549
  -Hartree energ DENC   =   -132538.18571770
  -exchange      EXHF   =         0.00000000
  -V(xc)+E(xc)   XCENC  =      1383.24799242
  PAW double counting   =     36816.51539408   -39986.87630570
  entropy T*S    EENTRO =         0.00000000
  eigenvalues    EBANDS =     -2020.98898709
  atomic energy  EATOM  =     41728.06753974
  Solvation  Ediel_sol  =         0.00000000
  ---------------------------------------------------
  free energy    TOTEN  =       -59.02401757 eV

  energy without entropy =      -59.02401757  energy(sigma->0) =      -59.02401757


--------------------------------------------------------------------------------------------------------




--------------------------------------- Iteration      1(   5)  ---------------------------------------


     EDDAV:  cpu time    6.7160: real time    6.7192
       DOS:  cpu time    0.0000: real time    0.0006
    CHARGE:  cpu time    0.1600: real time    0.1593
    MIXING:  cpu time    0.0120: real time    0.0102
    --------------------------------------------
      LOOP:  cpu time    6.8880: real time    6.8893

 eigenvalue-minimisations  :  1216
 total energy-change (2. order) :-0.3992830E+00  (-0.3979086E+00)
 number of electron     329.9999789 magnetization      81.9785988
 augmentation part      195.1910307 magnetization      78.4576472

 Broyden mixing:
  rms(total) = 0.97827E+01    rms(broyden)= 0.97810E+01
  rms(prec ) = 0.98833E+01
  weight for this iteration     100.00

 Free energy of the ion-electron system (eV)
  ---------------------------------------------------
  alpha Z        PSCENC =        54.32858120
  Ewald energy   TEWEN  =     94504.86748549
  -Hartree energ DENC   =   -132538.18571770
  -exchange      EXHF   =         0.00000000
  -V(xc)+E(xc)   XCENC  =      1383.24799242
  PAW double counting   =     36816.51539408   -39986.87630570
  entropy T*S    EENTRO =         0.00000000
  eigenvalues    EBANDS =     -2021.38827007
  atomic energy  EATOM  =     41728.06753974
  Solvation  Ediel_sol  =         0.00000000
  ---------------------------------------------------
  free energy    TOTEN  =       -59.42330055 eV

  energy without entropy =      -59.42330055  energy(sigma->0) =      -59.42330055


--------------------------------------------------------------------------------------------------------




--------------------------------------- Iteration      1(   6)  ---------------------------------------


    POTLOK:  cpu time    0.3760: real time    0.3968
    SETDIJ:  cpu time    0.0080: real time    0.0087
     EDDAV:  cpu time    5.9200: real time    5.9189
       DOS:  cpu time    0.0000: real time    0.0006
    CHARGE:  cpu time    0.1640: real time    0.1637
    MIXING:  cpu time    0.0120: real time    0.0116
    --------------------------------------------
      LOOP:  cpu time    6.4800: real time    6.5004

 eigenvalue-minimisations  :  1036
 total energy-change (2. order) : 0.2047260E+03  (-0.1224298E+03)
 number of electron     329.9999775 magnetization      76.3162289
 augmentation part      226.7847667 magnetization      49.7965167

 Broyden mixing:
  rms(total) = 0.46007E+01    rms(broyden)= 0.45978E+01
  rms(prec ) = 0.47682E+01
  weight for this iteration     100.00

 eigenvalues of (default mixing * dielectric matrix)
  average eigenvalue GAMMA=   0.9387
  0.9387

 Free energy of the ion-electron system (eV)
  ---------------------------------------------------
  alpha Z        PSCENC =        54.32858120
  Ewald energy   TEWEN  =     94504.86748549
  -Hartree energ DENC   =   -131699.91862246
  -exchange      EXHF   =         0.00000000
  -V(xc)+E(xc)   XCENC  =      1494.55557645
  PAW double counting   =     36938.36027008   -39953.46595802
  entropy T*S    EENTRO =         0.00000000
  eigenvalues    EBANDS =     -2921.49212346
  atomic energy  EATOM  =     41728.06753974
  Solvation  Ediel_sol  =         0.00000000
  ---------------------------------------------------
  free energy    TOTEN  =       145.30274902 eV

  energy without entropy =      145.30274902  energy(sigma->0) =      145.30274902


--------------------------------------------------------------------------------------------------------




--------------------------------------- Iteration      1(   7)  ---------------------------------------


    POTLOK:  cpu time    0.3720: real time    0.3872
    SETDIJ:  cpu time    0.0120: real time    0.0085
     EDDAV:  cpu time    6.3840: real time    6.3876
       DOS:  cpu time    0.0040: real time    0.0007
    CHARGE:  cpu time    0.1600: real time    0.1627
    MIXING:  cpu time    0.0120: real time    0.0117
    --------------------------------------------
      LOOP:  cpu time    6.9440: real time    6.9584

 eigenvalue-minimisations  :  1148
 total energy-change (2. order) :-0.7118703E+00  (-0.4671869E+02)
 number of electron     329.9999774 magnetization      69.6609390
 augmentation part      213.9841527 magnetization      42.5464970

 Broyden mixing:
  rms(total) = 0.23682E+01    rms(broyden)= 0.23673E+01
  rms(prec ) = 0.24033E+01
  weight for this iteration     100.00

 eigenvalues of (default mixing * dielectric matrix)
  average eigenvalue GAMMA=   0.8808
  1.0606  0.7010

 Free energy of the ion-electron system (eV)
  ---------------------------------------------------
  alpha Z        PSCENC =        54.32858120
  Ewald energy   TEWEN  =     94504.86748549
  -Hartree energ DENC   =   -132404.58039003
  -exchange      EXHF   =         0.00000000
  -V(xc)+E(xc)   XCENC  =      1508.57894382
  PAW double counting   =     38056.48784806   -41323.48574357
  entropy T*S    EENTRO =         0.00000000
  eigenvalues    EBANDS =     -1979.67338602
  atomic energy  EATOM  =     41728.06753974
  Solvation  Ediel_sol  =         0.00000000
  ---------------------------------------------------
  free energy    TOTEN  =       144.59087868 eV

  energy without entropy =      144.59087868  energy(sigma->0) =      144.59087868


--------------------------------------------------------------------------------------------------------




--------------------------------------- Iteration      1(   8)  ---------------------------------------


    POTLOK:  cpu time    0.3760: real time    0.3873
    SETDIJ:  cpu time    0.0080: real time    0.0084
     EDDAV:  cpu time    6.9680: real time    6.9686
       DOS:  cpu time    0.0000: real time    0.0006
    CHARGE:  cpu time    0.1600: real time    0.1570
    MIXING:  cpu time    0.0080: real time    0.0109
    --------------------------------------------
      LOOP:  cpu time    7.5200: real time    7.5329

 eigenvalue-minimisations  :  1280
 total energy-change (2. order) : 0.1401386E+02  (-0.8057934E+01)
 number of electron     329.9999795 magnetization      65.7468832
 augmentation part      210.4632837 magnetization      36.5026117

 Broyden mixing:
  rms(total) = 0.21828E+01    rms(broyden)= 0.21821E+01
  rms(prec ) = 0.22696E+01
  weight for this iteration     100.00

 eigenvalues of (default mixing * dielectric matrix)
  average eigenvalue GAMMA=   0.7950
  1.1281  0.7115  0.5455

 Free energy of the ion-electron system (eV)
  ---------------------------------------------------
  alpha Z        PSCENC =        54.32858120
  Ewald energy   TEWEN  =     94504.86748549
  -Hartree energ DENC   =   -132548.33923022
  -exchange      EXHF   =         0.00000000
  -V(xc)+E(xc)   XCENC  =      1521.74364478
  PAW double counting   =     38697.60795880   -41988.15283237
  entropy T*S    EENTRO =         0.00000000
  eigenvalues    EBANDS =     -1811.51840581
  atomic energy  EATOM  =     41728.06753974
  Solvation  Ediel_sol  =         0.00000000
  ---------------------------------------------------
  free energy    TOTEN  =       158.60474161 eV

  energy without entropy =      158.60474161  energy(sigma->0) =      158.60474161


--------------------------------------------------------------------------------------------------------




--------------------------------------- Iteration      1(   9)  ---------------------------------------


    POTLOK:  cpu time    0.3880: real time    0.3906
    SETDIJ:  cpu time    0.0080: real time    0.0085
     EDDAV:  cpu time    6.7440: real time    6.7441
       DOS:  cpu time    0.0000: real time    0.0007
    CHARGE:  cpu time    0.1640: real time    0.1625
    MIXING:  cpu time    0.0120: real time    0.0112
    --------------------------------------------
      LOOP:  cpu time    7.3160: real time    7.3177

 eigenvalue-minimisations  :  1224
 total energy-change (2. order) :-0.1115338E+02  (-0.2288994E+01)
 number of electron     329.9999780 magnetization      55.7291704
 augmentation part      211.7162132 magnetization      28.5463170

 Broyden mixing:
  rms(total) = 0.15355E+01    rms(broyden)= 0.15349E+01
  rms(prec ) = 0.15576E+01
  weight for this iteration     100.00

 eigenvalues of (default mixing * dielectric matrix)
  average eigenvalue GAMMA=   0.9289
  1.5039  1.0080  0.7812  0.4226

 Free energy of the ion-electron system (eV)
  ---------------------------------------------------
  alpha Z        PSCENC =        54.32858120
  Ewald energy   TEWEN  =     94504.86748549
  -Hartree energ DENC   =   -132488.97037361
  -exchange      EXHF   =         0.00000000
  -V(xc)+E(xc)   XCENC  =      1510.12613656
  PAW double counting   =     38834.15333077   -42107.51213712
  entropy T*S    EENTRO =         0.00000000
  eigenvalues    EBANDS =     -1887.60919817
  atomic energy  EATOM  =     41728.06753974
  Solvation  Ediel_sol  =         0.00000000
  ---------------------------------------------------
  free energy    TOTEN  =       147.45136486 eV

  energy without entropy =      147.45136486  energy(sigma->0) =      147.45136486


--------------------------------------------------------------------------------------------------------




--------------------------------------- Iteration      1(  10)  ---------------------------------------


    POTLOK:  cpu time    0.3800: real time    0.3829
    SETDIJ:  cpu time    0.0080: real time    0.0084
     EDDAV:  cpu time    7.9160: real time    7.9184
       DOS:  cpu time    0.0000: real time    0.0007
    CHARGE:  cpu time    0.1640: real time    0.1628
    MIXING:  cpu time    0.0160: real time    0.0134
    --------------------------------------------
      LOOP:  cpu time    8.4840: real time    8.4865

 eigenvalue-minimisations  :  1496
 total energy-change (2. order) :-0.5483881E+02  (-0.2543254E+01)
 number of electron     329.9999779 magnetization      46.9234004
 augmentation part      213.0838937 magnetization      23.0117735

 Broyden mixing:
  rms(total) = 0.12136E+01    rms(broyden)= 0.12131E+01
  rms(prec ) = 0.12334E+01
  weight for this iteration     100.00

 eigenvalues of (default mixing * dielectric matrix)
  average eigenvalue GAMMA=   1.0664
  2.4312  1.2174  0.6515  0.6200  0.4118

 Free energy of the ion-electron system (eV)
  ---------------------------------------------------
  alpha Z        PSCENC =        54.32858120
  Ewald energy   TEWEN  =     94504.86748549
  -Hartree energ DENC   =   -132459.45911803
  -exchange      EXHF   =         0.00000000
  -V(xc)+E(xc)   XCENC  =      1464.75960572
  PAW double counting   =     39099.06257986   -42337.89702842
  entropy T*S    EENTRO =         0.00000000
  eigenvalues    EBANDS =     -1961.11708760
  atomic energy  EATOM  =     41728.06753974
  Solvation  Ediel_sol  =         0.00000000
  ---------------------------------------------------
  free energy    TOTEN  =        92.61255795 eV

  energy without entropy =       92.61255795  energy(sigma->0) =       92.61255795


--------------------------------------------------------------------------------------------------------




--------------------------------------- Iteration      1(  11)  ---------------------------------------


    POTLOK:  cpu time    0.3720: real time    0.3902
    SETDIJ:  cpu time    0.0080: real time    0.0084
     EDDAV:  cpu time    6.5760: real time    6.5766
       DOS:  cpu time    0.0000: real time    0.0006
    CHARGE:  cpu time    0.1640: real time    0.1627
    MIXING:  cpu time    0.0160: real time    0.0142
    --------------------------------------------
      LOOP:  cpu time    7.1360: real time    7.1527

 eigenvalue-minimisations  :  1192
 total energy-change (2. order) :-0.3259008E+02  (-0.2483114E+01)
 number of electron     329.9999776 magnetization      41.3342246
 augmentation part      213.4674538 magnetization      20.8475936

 Broyden mixing:
  rms(total) = 0.95096E+00    rms(broyden)= 0.95048E+00
  rms(prec ) = 0.96674E+00
  weight for this iteration     100.00

 eigenvalues of (default mixing * dielectric matrix)
  average eigenvalue GAMMA=   1.0420
  2.7408  1.2752  0.6243  0.6243  0.5913  0.3961

 Free energy of the ion-electron system (eV)
  ---------------------------------------------------
  alpha Z        PSCENC =        54.32858120
  Ewald energy   TEWEN  =     94504.86748549
  -Hartree energ DENC   =   -132469.84584128
  -exchange      EXHF   =         0.00000000
  -V(xc)+E(xc)   XCENC  =      1440.56024756
  PAW double counting   =     39241.28765235   -42464.13327478
  entropy T*S    EENTRO =         0.00000000
  eigenvalues    EBANDS =     -1975.10991260
  atomic energy  EATOM  =     41728.06753974
  Solvation  Ediel_sol  =         0.00000000
  ---------------------------------------------------
  free energy    TOTEN  =        60.02247768 eV

  energy without entropy =       60.02247768  energy(sigma->0) =       60.02247768


--------------------------------------------------------------------------------------------------------




--------------------------------------- Iteration      1(  12)  ---------------------------------------


    POTLOK:  cpu time    0.3720: real time    0.3845
    SETDIJ:  cpu time    0.0120: real time    0.0084
     EDDAV:  cpu time    6.5560: real time    6.5560
       DOS:  cpu time    0.0000: real time    0.0006
    CHARGE:  cpu time    0.1640: real time    0.1647
    MIXING:  cpu time    0.0120: real time    0.0143
    --------------------------------------------
      LOOP:  cpu time    7.1200: real time    7.1286

 eigenvalue-minimisations  :  1184
 total energy-change (2. order) :-0.1957891E+02  (-0.1438946E+01)
 number of electron     329.9999775 magnetization      30.3743948
 augmentation part      212.7542820 magnetization      12.8281887

 Broyden mixing:
  rms(total) = 0.76008E+00    rms(broyden)= 0.75963E+00
  rms(prec ) = 0.77227E+00
  weight for this iteration     100.00

 eigenvalues of (default mixing * dielectric matrix)
  average eigenvalue GAMMA=   1.2114
  3.7922  1.4347  0.8397  0.8397  0.7243  0.4246  0.4246

 Free energy of the ion-electron system (eV)
  ---------------------------------------------------
  alpha Z        PSCENC =        54.32858120
  Ewald energy   TEWEN  =     94504.86748549
  -Hartree energ DENC   =   -132510.86443159
  -exchange      EXHF   =         0.00000000
  -V(xc)+E(xc)   XCENC  =      1427.59366194
  PAW double counting   =     39260.21698800   -42487.12349342
  entropy T*S    EENTRO =         0.00000000
  eigenvalues    EBANDS =     -1936.64276463
  atomic energy  EATOM  =     41728.06753974
  Solvation  Ediel_sol  =         0.00000000
  ---------------------------------------------------
  free energy    TOTEN  =        40.44356672 eV

  energy without entropy =       40.44356672  energy(sigma->0) =       40.44356672


--------------------------------------------------------------------------------------------------------




--------------------------------------- Iteration      1(  13)  ---------------------------------------


    POTLOK:  cpu time    0.3760: real time    0.3890
    SETDIJ:  cpu time    0.0080: real time    0.0084
     EDDAV:  cpu time    7.2200: real time    7.2178
       DOS:  cpu time    0.0000: real time    0.0007
    CHARGE:  cpu time    0.1640: real time    0.1644
    MIXING:  cpu time    0.0120: real time    0.0135
    --------------------------------------------
      LOOP:  cpu time    7.7760: real time    7.7937

 eigenvalue-minimisations  :  1336
 total energy-change (2. order) :-0.4261005E+02  (-0.3303273E+01)
 number of electron     329.9999776 magnetization      22.7107129
 augmentation part      211.1525890 magnetization      10.2354929

 Broyden mixing:
  rms(total) = 0.67220E+00    rms(broyden)= 0.67130E+00
  rms(prec ) = 0.69335E+00
  weight for this iteration     100.00

 eigenvalues of (default mixing * dielectric matrix)
  average eigenvalue GAMMA=   1.2941
  4.9487  1.5739  1.1253  0.6807  0.6807  0.5428  0.4228  0.3780

 Free energy of the ion-electron system (eV)
  ---------------------------------------------------
  alpha Z        PSCENC =        54.32858120
  Ewald energy   TEWEN  =     94504.86748549
  -Hartree energ DENC   =   -132584.49157380
  -exchange      EXHF   =         0.00000000
  -V(xc)+E(xc)   XCENC  =      1397.41095805
  PAW double counting   =     39250.98053409   -42484.43888519
  entropy T*S    EENTRO =        -0.00000000
  eigenvalues    EBANDS =     -1868.89112459
  atomic energy  EATOM  =     41728.06753974
  Solvation  Ediel_sol  =         0.00000000
  ---------------------------------------------------
  free energy    TOTEN  =        -2.16648503 eV

  energy without entropy =       -2.16648503  energy(sigma->0) =       -2.16648503


--------------------------------------------------------------------------------------------------------




--------------------------------------- Iteration      1(  14)  ---------------------------------------


    POTLOK:  cpu time    0.3760: real time    0.3911
    SETDIJ:  cpu time    0.0080: real time    0.0084
     EDDAV:  cpu time    7.1240: real time    7.1230
       DOS:  cpu time    0.0000: real time    0.0006
    CHARGE:  cpu time    0.1600: real time    0.1597
    MIXING:  cpu time    0.0160: real time    0.0149
    --------------------------------------------
      LOOP:  cpu time    7.6840: real time    7.6977

 eigenvalue-minimisations  :  1312
 total energy-change (2. order) :-0.2574953E+02  (-0.2142674E+01)
 number of electron     329.9999781 magnetization      18.3370975
 augmentation part      210.4889871 magnetization       8.9530035

 Broyden mixing:
  rms(total) = 0.56204E+00    rms(broyden)= 0.56138E+00
  rms(prec ) = 0.58412E+00
  weight for this iteration     100.00

 eigenvalues of (default mixing * dielectric matrix)
  average eigenvalue GAMMA=   1.3151
  5.6423  1.8675  1.0831  0.6534  0.6534  0.5758  0.5758  0.3923  0.3923

 Free energy of the ion-electron system (eV)
  ---------------------------------------------------
  alpha Z        PSCENC =        54.32858120
  Ewald energy   TEWEN  =     94504.86748549
  -Hartree energ DENC   =   -132606.37565186
  -exchange      EXHF   =         0.00000000
  -V(xc)+E(xc)   XCENC  =      1378.92686535
  PAW double counting   =     39223.16038910   -42454.80541059
  entropy T*S    EENTRO =         0.00000000
  eigenvalues    EBANDS =     -1856.08581471
  atomic energy  EATOM  =     41728.06753974
  Solvation  Ediel_sol  =         0.00000000
  ---------------------------------------------------
  free energy    TOTEN  =       -27.91601628 eV

  energy without entropy =      -27.91601628  energy(sigma->0) =      -27.91601628


--------------------------------------------------------------------------------------------------------




--------------------------------------- Iteration      1(  15)  ---------------------------------------


    POTLOK:  cpu time    0.3760: real time    0.3848
    SETDIJ:  cpu time    0.0080: real time    0.0085
     EDDAV:  cpu time    7.1320: real time    7.1326
       DOS:  cpu time    0.0000: real time    0.0008
    CHARGE:  cpu time    0.1640: real time    0.1646
    MIXING:  cpu time    0.0160: real time    0.0156
    --------------------------------------------
      LOOP:  cpu time    7.6960: real time    7.7069

 eigenvalue-minimisations  :  1320
 total energy-change (2. order) :-0.1627688E+02  (-0.1437795E+01)
 number of electron     329.9999781 magnetization      14.8998229
 augmentation part      210.6052836 magnetization       8.4565311

 Broyden mixing:
  rms(total) = 0.46433E+00    rms(broyden)= 0.46376E+00
  rms(prec ) = 0.48365E+00
  weight for this iteration     100.00

 eigenvalues of (default mixing * dielectric matrix)
  average eigenvalue GAMMA=   1.3221
  6.1932  2.1006  1.0116  0.7212  0.7212  0.6470  0.6470  0.4207  0.4207  0.3379

 Free energy of the ion-electron system (eV)
  ---------------------------------------------------
  alpha Z        PSCENC =        54.32858120
  Ewald energy   TEWEN  =     94504.86748549
  -Hartree energ DENC   =   -132589.27394552
  -exchange      EXHF   =         0.00000000
  -V(xc)+E(xc)   XCENC  =      1366.46560618
  PAW double counting   =     39137.66999089   -42362.55622894
  entropy T*S    EENTRO =         0.00000000
  eigenvalues    EBANDS =     -1883.76192759
  atomic energy  EATOM  =     41728.06753974
  Solvation  Ediel_sol  =         0.00000000
  ---------------------------------------------------
  free energy    TOTEN  =       -44.19289855 eV

  energy without entropy =      -44.19289855  energy(sigma->0) =      -44.19289855


--------------------------------------------------------------------------------------------------------




--------------------------------------- Iteration      1(  16)  ---------------------------------------


    POTLOK:  cpu time    0.3760: real time    0.3895
    SETDIJ:  cpu time    0.0080: real time    0.0083
     EDDAV:  cpu time    6.6880: real time    6.6901
       DOS:  cpu time    0.0040: real time    0.0006
    CHARGE:  cpu time    0.1600: real time    0.1618
    MIXING:  cpu time    0.0160: real time    0.0173
    --------------------------------------------
      LOOP:  cpu time    7.2520: real time    7.2676

 eigenvalue-minimisations  :  1216
 total energy-change (2. order) :-0.1135426E+02  (-0.8396406E+00)
 number of electron     329.9999779 magnetization      12.4764199
 augmentation part      210.9629277 magnetization       7.2239986

 Broyden mixing:
  rms(total) = 0.35839E+00    rms(broyden)= 0.35826E+00
  rms(prec ) = 0.37166E+00
  weight for this iteration     100.00

 eigenvalues of (default mixing * dielectric matrix)
  average eigenvalue GAMMA=   1.3993
  6.7508  2.5798  1.0257  1.0257  0.8204  0.8204  0.5963  0.5963  0.4118  0.4118
  0.3536

 Free energy of the ion-electron system (eV)
  ---------------------------------------------------
  alpha Z        PSCENC =        54.32858120
  Ewald energy   TEWEN  =     94504.86748549
  -Hartree energ DENC   =   -132562.44244240
  -exchange      EXHF   =         0.00000000
  -V(xc)+E(xc)   XCENC  =      1357.19922089
  PAW double counting   =     39049.26228108   -42267.15059080
  entropy T*S    EENTRO =         0.00000000
  eigenvalues    EBANDS =     -1919.67923654
  atomic energy  EATOM  =     41728.06753974
  Solvation  Ediel_sol  =         0.00000000
  ---------------------------------------------------
  free energy    TOTEN  =       -55.54716134 eV

  energy without entropy =      -55.54716134  energy(sigma->0) =      -55.54716134


--------------------------------------------------------------------------------------------------------




--------------------------------------- Iteration      1(  17)  ---------------------------------------


    POTLOK:  cpu time    0.3760: real time    0.3845
    SETDIJ:  cpu time    0.0080: real time    0.0082
     EDDAV:  cpu time    7.1840: real time    7.1832
       DOS:  cpu time    0.0000: real time    0.0006
    CHARGE:  cpu time    0.1640: real time    0.1623
    MIXING:  cpu time    0.0160: real time    0.0177
    --------------------------------------------
      LOOP:  cpu time    7.7480: real time    7.7565

 eigenvalue-minimisations  :  1328
 total energy-change (2. order) :-0.1076435E+02  (-0.5813653E+00)
 number of electron     329.9999782 magnetization       9.7116228
 augmentation part      211.4367985 magnetization       7.0683193

 Broyden mixing:
  rms(total) = 0.30271E+00    rms(broyden)= 0.30218E+00
  rms(prec ) = 0.31673E+00
  weight for this iteration     100.00

 eigenvalues of (default mixing * dielectric matrix)
  average eigenvalue GAMMA=   1.4108
  7.5530  2.6994  1.0581  1.0581  0.8636  0.8636  0.6146  0.6146  0.4717  0.4124
  0.3924  0.3284

 Free energy of the ion-electron system (eV)
  ---------------------------------------------------
  alpha Z        PSCENC =        54.32858120
  Ewald energy   TEWEN  =     94504.86748549
  -Hartree energ DENC   =   -132515.48748833
  -exchange      EXHF   =         0.00000000
  -V(xc)+E(xc)   XCENC  =      1347.52730751
  PAW double counting   =     38918.90735048   -42130.96986299
  entropy T*S    EENTRO =         0.00000000
  eigenvalues    EBANDS =     -1973.55242203
  atomic energy  EATOM  =     41728.06753974
  Solvation  Ediel_sol  =         0.00000000
  ---------------------------------------------------
  free energy    TOTEN  =       -66.31150894 eV

  energy without entropy =      -66.31150894  energy(sigma->0) =      -66.31150894


--------------------------------------------------------------------------------------------------------




--------------------------------------- Iteration      1(  18)  ---------------------------------------


    POTLOK:  cpu time    0.3840: real time    0.3874
    SETDIJ:  cpu time    0.0080: real time    0.0082
     EDDAV:  cpu time    6.8160: real time    6.8133
       DOS:  cpu time    0.0000: real time    0.0006
    CHARGE:  cpu time    0.1600: real time    0.1607
    MIXING:  cpu time    0.0160: real time    0.0170
    --------------------------------------------
      LOOP:  cpu time    7.3840: real time    7.3873

 eigenvalue-minimisations  :  1240
 total energy-change (2. order) :-0.4933128E+01  (-0.1565225E+00)
 number of electron     329.9999780 magnetization       7.1224473
 augmentation part      211.5085351 magnetization       4.8998442

 Broyden mixing:
  rms(total) = 0.20875E+00    rms(broyden)= 0.20868E+00
  rms(prec ) = 0.21563E+00
  weight for this iteration     100.00

 eigenvalues of (default mixing * dielectric matrix)
  average eigenvalue GAMMA=   1.4584
  8.3148  2.6328  1.4107  1.1152  1.1152  0.7145  0.7145  0.6854  0.6854  0.4216
  0.4216  0.3948  0.3330

 Free energy of the ion-electron system (eV)
  ---------------------------------------------------
  alpha Z        PSCENC =        54.32858120
  Ewald energy   TEWEN  =     94504.86748549
  -Hartree energ DENC   =   -132502.85637911
  -exchange      EXHF   =         0.00000000
  -V(xc)+E(xc)   XCENC  =      1343.10424659
  PAW double counting   =     38890.93401215   -42104.13463519
  entropy T*S    EENTRO =         0.00000000
  eigenvalues    EBANDS =     -1985.55548799
  atomic energy  EATOM  =     41728.06753974
  Solvation  Ediel_sol  =         0.00000000
  ---------------------------------------------------
  free energy    TOTEN  =       -71.24463713 eV

  energy without entropy =      -71.24463713  energy(sigma->0) =      -71.24463713


--------------------------------------------------------------------------------------------------------




--------------------------------------- Iteration      1(  19)  ---------------------------------------


    POTLOK:  cpu time    0.3760: real time    0.3887
    SETDIJ:  cpu time    0.0080: real time    0.0081
     EDDAV:  cpu time    6.7920: real time    6.7913
       DOS:  cpu time    0.0000: real time    0.0007
    CHARGE:  cpu time    0.1640: real time    0.1637
    MIXING:  cpu time    0.0160: real time    0.0176
    --------------------------------------------
      LOOP:  cpu time    7.3560: real time    7.3700

 eigenvalue-minimisations  :  1240
 total energy-change (2. order) :-0.4718706E+01  (-0.1151103E+00)
 number of electron     329.9999780 magnetization       5.0560402
 augmentation part      211.3715648 magnetization       3.0492602

 Broyden mixing:
  rms(total) = 0.15674E+00    rms(broyden)= 0.15671E+00
  rms(prec ) = 0.16307E+00
  weight for this iteration     100.00

 eigenvalues of (default mixing * dielectric matrix)
  average eigenvalue GAMMA=   1.4899
  8.9749  2.9497  1.4772  1.0446  1.0446  1.0697  0.7461  0.7461  0.6215  0.6215
  0.4223  0.4223  0.3836  0.3341

 Free energy of the ion-electron system (eV)
  ---------------------------------------------------
  alpha Z        PSCENC =        54.32858120
  Ewald energy   TEWEN  =     94504.86748549
  -Hartree energ DENC   =   -132495.05332613
  -exchange      EXHF   =         0.00000000
  -V(xc)+E(xc)   XCENC  =      1338.96753864
  PAW double counting   =     38889.60391154   -42107.32305144
  entropy T*S    EENTRO =        -0.00000000
  eigenvalues    EBANDS =     -1989.42202255
  atomic energy  EATOM  =     41728.06753974
  Solvation  Ediel_sol  =         0.00000000
  ---------------------------------------------------
  free energy    TOTEN  =       -75.96334351 eV

  energy without entropy =      -75.96334351  energy(sigma->0) =      -75.96334351


--------------------------------------------------------------------------------------------------------




--------------------------------------- Iteration      1(  20)  ---------------------------------------


    POTLOK:  cpu time    0.3760: real time    0.3977
    SETDIJ:  cpu time    0.0080: real time    0.0083
     EDDAV:  cpu time    6.7320: real time    6.7299
       DOS:  cpu time    0.0000: real time    0.0006
    CHARGE:  cpu time    0.1640: real time    0.1638
    MIXING:  cpu time    0.0160: real time    0.0186
    --------------------------------------------
      LOOP:  cpu time    7.2960: real time    7.3189

 eigenvalue-minimisations  :  1224
 total energy-change (2. order) :-0.3933823E+01  (-0.6640660E-01)
 number of electron     329.9999778 magnetization       3.5935944
 augmentation part      211.4085777 magnetization       3.3654999

 Broyden mixing:
  rms(total) = 0.16742E+00    rms(broyden)= 0.16661E+00
  rms(prec ) = 0.17359E+00
  weight for this iteration     100.00

 eigenvalues of (default mixing * dielectric matrix)
  average eigenvalue GAMMA=   1.4575
  9.4509  2.9031  1.8648  1.1007  1.1007  0.8150  0.8150  0.6709  0.6709  0.6260
  0.4246  0.4246  0.3872  0.3299  0.2785

 Free energy of the ion-electron system (eV)
  ---------------------------------------------------
  alpha Z        PSCENC =        54.32858120
  Ewald energy   TEWEN  =     94504.86748549
  -Hartree energ DENC   =   -132474.36075601
  -exchange      EXHF   =         0.00000000
  -V(xc)+E(xc)   XCENC  =      1335.04492944
  PAW double counting   =     38855.98455032   -42075.17599172
  entropy T*S    EENTRO =         0.00000000
  eigenvalues    EBANDS =     -2008.65350503
  atomic energy  EATOM  =     41728.06753974
  Solvation  Ediel_sol  =         0.00000000
  ---------------------------------------------------
  free energy    TOTEN  =       -79.89716658 eV

  energy without entropy =      -79.89716658  energy(sigma->0) =      -79.89716658


--------------------------------------------------------------------------------------------------------




--------------------------------------- Iteration      1(  21)  ---------------------------------------


    POTLOK:  cpu time    0.3800: real time    0.3955
    SETDIJ:  cpu time    0.0080: real time    0.0081
     EDDAV:  cpu time    7.0440: real time    7.0443
       DOS:  cpu time    0.0000: real time    0.0006
    CHARGE:  cpu time    0.1600: real time    0.1610
    MIXING:  cpu time    0.0200: real time    0.0194
    --------------------------------------------
      LOOP:  cpu time    7.6120: real time    7.6288

 eigenvalue-minimisations  :  1296
 total energy-change (2. order) :-0.9879726E+00  (-0.1865049E-01)
 number of electron     329.9999778 magnetization       2.7505104
 augmentation part      211.4785137 magnetization       2.6487127

 Broyden mixing:
  rms(total) = 0.11514E+00    rms(broyden)= 0.11508E+00
  rms(prec ) = 0.12170E+00
  weight for this iteration     100.00

 eigenvalues of (default mixing * dielectric matrix)
  average eigenvalue GAMMA=   1.4734
  9.8206  2.6033  2.2740  1.1970  1.1970  0.9147  0.8047  0.8047  0.6862  0.6862
  0.5170  0.5170  0.4179  0.4179  0.3806  0.3352

 Free energy of the ion-electron system (eV)
  ---------------------------------------------------
  alpha Z        PSCENC =        54.32858120
  Ewald energy   TEWEN  =     94504.86748549
  -Hartree energ DENC   =   -132469.60876716
  -exchange      EXHF   =         0.00000000
  -V(xc)+E(xc)   XCENC  =      1333.99952831
  PAW double counting   =     38853.74914674   -42073.16557433
  entropy T*S    EENTRO =         0.00000000
  eigenvalues    EBANDS =     -2013.12307912
  atomic energy  EATOM  =     41728.06753974
  Solvation  Ediel_sol  =         0.00000000
  ---------------------------------------------------
  free energy    TOTEN  =       -80.88513914 eV

  energy without entropy =      -80.88513914  energy(sigma->0) =      -80.88513914


--------------------------------------------------------------------------------------------------------




--------------------------------------- Iteration      1(  22)  ---------------------------------------


    POTLOK:  cpu time    0.3840: real time    0.3858
    SETDIJ:  cpu time    0.0080: real time    0.0084
     EDDAV:  cpu time    6.8360: real time    6.8363
       DOS:  cpu time    0.0000: real time    0.0006
    CHARGE:  cpu time    0.1600: real time    0.1602
    MIXING:  cpu time    0.0240: real time    0.0205
    --------------------------------------------
      LOOP:  cpu time    7.4120: real time    7.4118

 eigenvalue-minimisations  :  1248
 total energy-change (2. order) :-0.8386065E+00  (-0.7323549E-02)
 number of electron     329.9999778 magnetization       1.3196988
 augmentation part      211.4327597 magnetization       1.2455300

 Broyden mixing:
  rms(total) = 0.85142E-01    rms(broyden)= 0.85130E-01
  rms(prec ) = 0.90952E-01
  weight for this iteration     100.00

 eigenvalues of (default mixing * dielectric matrix)
  average eigenvalue GAMMA=   1.5292
 10.6064  2.7049  2.7049  1.4834  1.1072  1.1072  0.8903  0.8903  0.6974  0.6974
  0.5629  0.5629  0.4256  0.4256  0.4190  0.3759  0.3361

 Free energy of the ion-electron system (eV)
  ---------------------------------------------------
  alpha Z        PSCENC =        54.32858120
  Ewald energy   TEWEN  =     94504.86748549
  -Hartree energ DENC   =   -132466.03850584
  -exchange      EXHF   =         0.00000000
  -V(xc)+E(xc)   XCENC  =      1333.19265855
  PAW double counting   =     38858.95695262   -42079.08388058
  entropy T*S    EENTRO =         0.00000000
  eigenvalues    EBANDS =     -2016.01457679
  atomic energy  EATOM  =     41728.06753974
  Solvation  Ediel_sol  =         0.00000000
  ---------------------------------------------------
  free energy    TOTEN  =       -81.72374562 eV

  energy without entropy =      -81.72374562  energy(sigma->0) =      -81.72374562


--------------------------------------------------------------------------------------------------------




--------------------------------------- Iteration      1(  23)  ---------------------------------------


    POTLOK:  cpu time    0.3840: real time    0.3878
    SETDIJ:  cpu time    0.0120: real time    0.0086
     EDDAV:  cpu time    7.3680: real time    7.3714
       DOS:  cpu time    0.0040: real time    0.0005
    CHARGE:  cpu time    0.1560: real time    0.1582
    MIXING:  cpu time    0.0240: real time    0.0232
    --------------------------------------------
      LOOP:  cpu time    7.9480: real time    7.9497

 eigenvalue-minimisations  :  1376
 total energy-change (2. order) :-0.1657652E+01  (-0.1287987E-01)
 number of electron     329.9999778 magnetization       0.5662226
 augmentation part      211.3874319 magnetization       0.5424210

 Broyden mixing:
  rms(total) = 0.41787E-01    rms(broyden)= 0.41756E-01
  rms(prec ) = 0.46670E-01
  weight for this iteration     100.00

 eigenvalues of (default mixing * dielectric matrix)
  average eigenvalue GAMMA=   1.5772
 11.2518  3.6923  2.3474  1.6872  1.2165  1.2165  0.8597  0.8597  0.8460  0.6752
  0.6752  0.6149  0.4478  0.4478  0.4206  0.4206  0.3363  0.3739

 Free energy of the ion-electron system (eV)
  ---------------------------------------------------
  alpha Z        PSCENC =        54.32858120
  Ewald energy   TEWEN  =     94504.86748549
  -Hartree energ DENC   =   -132453.05546616
  -exchange      EXHF   =         0.00000000
  -V(xc)+E(xc)   XCENC  =      1331.51513239
  PAW double counting   =     38853.61117365   -42074.65633759
  entropy T*S    EENTRO =         0.00000000
  eigenvalues    EBANDS =     -2028.05950642
  atomic energy  EATOM  =     41728.06753974
  Solvation  Ediel_sol  =         0.00000000
  ---------------------------------------------------
  free energy    TOTEN  =       -83.38139771 eV

  energy without entropy =      -83.38139771  energy(sigma->0) =      -83.38139771


--------------------------------------------------------------------------------------------------------




--------------------------------------- Iteration      1(  24)  ---------------------------------------


    POTLOK:  cpu time    0.3760: real time    0.3857
    SETDIJ:  cpu time    0.0080: real time    0.0084
     EDDAV:  cpu time    7.1000: real time    7.1008
       DOS:  cpu time    0.0000: real time    0.0007
    CHARGE:  cpu time    0.1640: real time    0.1642
    MIXING:  cpu time    0.0240: real time    0.0223
    --------------------------------------------
      LOOP:  cpu time    7.6720: real time    7.6821

 eigenvalue-minimisations  :  1312
 total energy-change (2. order) :-0.9089975E+00  (-0.5801415E-02)
 number of electron     329.9999778 magnetization       0.5221298
 augmentation part      211.4757535 magnetization       0.5481384

 Broyden mixing:
  rms(total) = 0.32505E-01    rms(broyden)= 0.32494E-01
  rms(prec ) = 0.35322E-01
  weight for this iteration     100.00

 eigenvalues of (default mixing * dielectric matrix)
  average eigenvalue GAMMA=   1.5517
 11.3524  3.9447  2.2405  1.5486  1.2556  1.0825  1.0825  0.9294  0.9294  0.7059
  0.7059  0.7401  0.5480  0.3361  0.4348  0.4348  0.4200  0.4200  0.3721

 Free energy of the ion-electron system (eV)
  ---------------------------------------------------
  alpha Z        PSCENC =        54.32858120
  Ewald energy   TEWEN  =     94504.86748549
  -Hartree energ DENC   =   -132436.79040830
  -exchange      EXHF   =         0.00000000
  -V(xc)+E(xc)   XCENC  =      1330.40682008
  PAW double counting   =     38841.09440395   -42061.41936859
  entropy T*S    EENTRO =         0.00000000
  eigenvalues    EBANDS =     -2044.84544878
  atomic energy  EATOM  =     41728.06753974
  Solvation  Ediel_sol  =         0.00000000
  ---------------------------------------------------
  free energy    TOTEN  =       -84.29039521 eV

  energy without entropy =      -84.29039521  energy(sigma->0) =      -84.29039521


--------------------------------------------------------------------------------------------------------




--------------------------------------- Iteration      1(  25)  ---------------------------------------


    POTLOK:  cpu time    0.3760: real time    0.3956
    SETDIJ:  cpu time    0.0080: real time    0.0082
     EDDAV:  cpu time    6.3520: real time    6.3522
       DOS:  cpu time    0.0000: real time    0.0007
    CHARGE:  cpu time    0.1640: real time    0.1622
    MIXING:  cpu time    0.0240: real time    0.0241
    --------------------------------------------
      LOOP:  cpu time    6.9240: real time    6.9430

 eigenvalue-minimisations  :  1136
 total energy-change (2. order) :-0.1758697E+00  (-0.1134459E-02)
 number of electron     329.9999778 magnetization       0.4510541
 augmentation part      211.4800592 magnetization       0.4664252

 Broyden mixing:
  rms(total) = 0.23236E-01    rms(broyden)= 0.23232E-01
  rms(prec ) = 0.25808E-01
  weight for this iteration     100.00

 eigenvalues of (default mixing * dielectric matrix)
  average eigenvalue GAMMA=   1.5574
 11.4683  4.2687  2.1330  2.1330  1.1492  1.1492  1.2146  1.0222  0.8512  0.8512
  0.6600  0.6600  0.6165  0.5477  0.3362  0.4272  0.4272  0.4299  0.4299  0.3729

 Free energy of the ion-electron system (eV)
  ---------------------------------------------------
  alpha Z        PSCENC =        54.32858120
  Ewald energy   TEWEN  =     94504.86748549
  -Hartree energ DENC   =   -132433.21878790
  -exchange      EXHF   =         0.00000000
  -V(xc)+E(xc)   XCENC  =      1330.21694053
  PAW double counting   =     38845.52159627   -42065.69093408
  entropy T*S    EENTRO =         0.00000000
  eigenvalues    EBANDS =     -2048.55868618
  atomic energy  EATOM  =     41728.06753974
  Solvation  Ediel_sol  =         0.00000000
  ---------------------------------------------------
  free energy    TOTEN  =       -84.46626494 eV

  energy without entropy =      -84.46626494  energy(sigma->0) =      -84.46626494


--------------------------------------------------------------------------------------------------------




--------------------------------------- Iteration      1(  26)  ---------------------------------------


    POTLOK:  cpu time    0.3760: real time    0.3928
    SETDIJ:  cpu time    0.0080: real time    0.0085
     EDDAV:  cpu time    6.4960: real time    6.4966
       DOS:  cpu time    0.0040: real time    0.0006
    CHARGE:  cpu time    0.1680: real time    0.1714
    MIXING:  cpu time    0.0280: real time    0.0264
    --------------------------------------------
      LOOP:  cpu time    7.0800: real time    7.0963

 eigenvalue-minimisations  :  1168
 total energy-change (2. order) :-0.2609474E+00  (-0.6746102E-03)
 number of electron     329.9999778 magnetization       0.2882665
 augmentation part      211.4720622 magnetization       0.2881370

 Broyden mixing:
  rms(total) = 0.13381E-01    rms(broyden)= 0.13377E-01
  rms(prec ) = 0.15499E-01
  weight for this iteration     100.00

 eigenvalues of (default mixing * dielectric matrix)
  average eigenvalue GAMMA=   1.5757
 11.6497  4.6389  2.3312  2.3312  1.2078  1.2078  1.2319  1.2319  0.8710  0.8710
  0.6786  0.6786  0.7101  0.5833  0.4560  0.4560  0.3362  0.4187  0.4187  0.3728
  0.4079

 Free energy of the ion-electron system (eV)
  ---------------------------------------------------
  alpha Z        PSCENC =        54.32858120
  Ewald energy   TEWEN  =     94504.86748549
  -Hartree energ DENC   =   -132428.77518713
  -exchange      EXHF   =         0.00000000
  -V(xc)+E(xc)   XCENC  =      1329.96706027
  PAW double counting   =     38851.94689132   -42072.06409335
  entropy T*S    EENTRO =         0.00000000
  eigenvalues    EBANDS =     -2053.06548991
  atomic energy  EATOM  =     41728.06753974
  Solvation  Ediel_sol  =         0.00000000
  ---------------------------------------------------
  free energy    TOTEN  =       -84.72721237 eV

  energy without entropy =      -84.72721237  energy(sigma->0) =      -84.72721237


--------------------------------------------------------------------------------------------------------




--------------------------------------- Iteration      1(  27)  ---------------------------------------


    POTLOK:  cpu time    0.4000: real time    0.3997
    SETDIJ:  cpu time    0.0080: real time    0.0083
     EDDAV:  cpu time    7.0320: real time    7.0321
       DOS:  cpu time    0.0000: real time    0.0006
    CHARGE:  cpu time    0.1640: real time    0.1646
    MIXING:  cpu time    0.0280: real time    0.0287
    --------------------------------------------
      LOOP:  cpu time    7.6320: real time    7.6339

 eigenvalue-minimisations  :  1296
 total energy-change (2. order) :-0.2190934E+00  (-0.3912938E-03)
 number of electron     329.9999778 magnetization       0.2239820
 augmentation part      211.4639478 magnetization       0.2286866

 Broyden mixing:
  rms(total) = 0.85335E-02    rms(broyden)= 0.85302E-02
  rms(prec ) = 0.10290E-01
  weight for this iteration     100.00

 eigenvalues of (default mixing * dielectric matrix)
  average eigenvalue GAMMA=   1.5656
 11.6881  4.9084  2.3156  2.3156  1.6764  1.1956  1.1956  1.0605  0.8580  0.8580
  0.9238  0.6694  0.6694  0.6799  0.5670  0.3362  0.4536  0.4536  0.3723  0.4213
  0.4213  0.4037

 Free energy of the ion-electron system (eV)
  ---------------------------------------------------
  alpha Z        PSCENC =        54.32858120
  Ewald energy   TEWEN  =     94504.86748549
  -Hartree energ DENC   =   -132424.12006506
  -exchange      EXHF   =         0.00000000
  -V(xc)+E(xc)   XCENC  =      1329.75325817
  PAW double counting   =     38854.62910871   -42074.74610379
  entropy T*S    EENTRO =         0.00000000
  eigenvalues    EBANDS =     -2057.72611023
  atomic energy  EATOM  =     41728.06753974
  Solvation  Ediel_sol  =         0.00000000
  ---------------------------------------------------
  free energy    TOTEN  =       -84.94630577 eV

  energy without entropy =      -84.94630577  energy(sigma->0) =      -84.94630577


--------------------------------------------------------------------------------------------------------




--------------------------------------- Iteration      1(  28)  ---------------------------------------


    POTLOK:  cpu time    0.3800: real time    0.3854
    SETDIJ:  cpu time    0.0080: real time    0.0081
     EDDAV:  cpu time    6.2840: real time    6.2858
       DOS:  cpu time    0.0000: real time    0.0006
    CHARGE:  cpu time    0.1680: real time    0.1654
    MIXING:  cpu time    0.0280: real time    0.0300
    --------------------------------------------
      LOOP:  cpu time    6.8680: real time    6.8755

 eigenvalue-minimisations  :  1120
 total energy-change (2. order) :-0.7426242E-01  (-0.1427962E-03)
 number of electron     329.9999778 magnetization       0.1691974
 augmentation part      211.4581049 magnetization       0.1700688

 Broyden mixing:
  rms(total) = 0.61987E-02    rms(broyden)= 0.61965E-02
  rms(prec ) = 0.77163E-02
  weight for this iteration     100.00

 eigenvalues of (default mixing * dielectric matrix)
  average eigenvalue GAMMA=   1.5565
 11.7216  5.0293  2.4008  2.1890  2.1890  1.2088  1.2088  1.0849  1.0849  0.8595
  0.8595  0.6741  0.6741  0.6855  0.5998  0.3362  0.4618  0.4618  0.4602  0.4187
  0.4187  0.3732  0.4004

 Free energy of the ion-electron system (eV)
  ---------------------------------------------------
  alpha Z        PSCENC =        54.32858120
  Ewald energy   TEWEN  =     94504.86748549
  -Hartree energ DENC   =   -132421.53873634
  -exchange      EXHF   =         0.00000000
  -V(xc)+E(xc)   XCENC  =      1329.67417158
  PAW double counting   =     38857.17279627   -42077.33672309
  entropy T*S    EENTRO =         0.00000000
  eigenvalues    EBANDS =     -2060.25568304
  atomic energy  EATOM  =     41728.06753974
  Solvation  Ediel_sol  =         0.00000000
  ---------------------------------------------------
  free energy    TOTEN  =       -85.02056820 eV

  energy without entropy =      -85.02056820  energy(sigma->0) =      -85.02056820


--------------------------------------------------------------------------------------------------------




--------------------------------------- Iteration      1(  29)  ---------------------------------------


    POTLOK:  cpu time    0.3760: real time    0.3854
    SETDIJ:  cpu time    0.0080: real time    0.0086
     EDDAV:  cpu time    7.0560: real time    7.0552
       DOS:  cpu time    0.0000: real time    0.0008
    CHARGE:  cpu time    0.1640: real time    0.1638
    MIXING:  cpu time    0.0360: real time    0.0339
    --------------------------------------------
      LOOP:  cpu time    7.6400: real time    7.6477

 eigenvalue-minimisations  :  1296
 total energy-change (2. order) :-0.3091110E-01  (-0.8253503E-04)
 number of electron     329.9999778 magnetization       0.1204836
 augmentation part      211.4579686 magnetization       0.1179193

 Broyden mixing:
  rms(total) = 0.38575E-02    rms(broyden)= 0.38562E-02
  rms(prec ) = 0.50810E-02
  weight for this iteration     100.00

 eigenvalues of (default mixing * dielectric matrix)
  average eigenvalue GAMMA=   1.5506
 11.7594  5.0889  2.5762  2.5762  1.8931  1.1969  1.1969  1.2675  1.1093  0.8663
  0.8663  0.8753  0.7316  0.6705  0.6705  0.5576  0.3362  0.4754  0.4456  0.4456
  0.4207  0.4207  0.3725  0.3957

 Free energy of the ion-electron system (eV)
  ---------------------------------------------------
  alpha Z        PSCENC =        54.32858120
  Ewald energy   TEWEN  =     94504.86748549
  -Hartree energ DENC   =   -132419.03280909
  -exchange      EXHF   =         0.00000000
  -V(xc)+E(xc)   XCENC  =      1329.62815851
  PAW double counting   =     38859.19811057   -42079.35881534
  entropy T*S    EENTRO =        -0.00000000
  eigenvalues    EBANDS =     -2062.74973038
  atomic energy  EATOM  =     41728.06753974
  Solvation  Ediel_sol  =         0.00000000
  ---------------------------------------------------
  free energy    TOTEN  =       -85.05147930 eV

  energy without entropy =      -85.05147930  energy(sigma->0) =      -85.05147930


--------------------------------------------------------------------------------------------------------




--------------------------------------- Iteration      1(  30)  ---------------------------------------


    POTLOK:  cpu time    0.3800: real time    0.3866
    SETDIJ:  cpu time    0.0080: real time    0.0084
     EDDAV:  cpu time    7.3680: real time    7.3651
       DOS:  cpu time    0.0000: real time    0.0006
    CHARGE:  cpu time    0.1680: real time    0.1711
    MIXING:  cpu time    0.0360: real time    0.0359
    --------------------------------------------
      LOOP:  cpu time    7.9600: real time    7.9677

 eigenvalue-minimisations  :  1368
 total energy-change (2. order) :-0.1761310E-01  (-0.5762983E-04)
 number of electron     329.9999778 magnetization       0.1043885
 augmentation part      211.4653889 magnetization       0.1040285

 Broyden mixing:
  rms(total) = 0.25929E-02    rms(broyden)= 0.25921E-02
  rms(prec ) = 0.34832E-02
  weight for this iteration     100.00

 eigenvalues of (default mixing * dielectric matrix)
  average eigenvalue GAMMA=   1.5565
 11.7364  5.2574  3.0156  2.4663  1.8454  1.8454  1.1905  1.1905  1.0720  1.0720
  0.8585  0.8585  0.6740  0.6740  0.6679  0.6679  0.5289  0.3362  0.4571  0.4571
  0.4200  0.4200  0.4377  0.3728  0.3911

[...]
 total augmentation occupancy for first ion, spin component:           2
  0.000   0.000  -0.000  -0.000  -0.000   0.000  -0.000   0.000   0.000   0.000   0.000  -0.000   0.000   0.000  -0.000  -0.000
  0.000   0.000   0.000   0.000   0.000  -0.000   0.000  -0.000   0.000   0.000  -0.000   0.000  -0.000   0.000   0.000  -0.000
 -0.000   0.000   0.000  -0.000   0.000   0.000  -0.000   0.000   0.000  -0.000   0.000  -0.000   0.000   0.000  -0.000  -0.000
 -0.000   0.000  -0.000   0.000   0.000  -0.000   0.000   0.000   0.000  -0.000  -0.000   0.000   0.000   0.000  -0.000  -0.000
 -0.000   0.000   0.000   0.000  -0.000   0.000  -0.000  -0.000  -0.000   0.000   0.000   0.000   0.000  -0.000   0.000  -0.000
  0.000  -0.000   0.000  -0.000   0.000  -0.000   0.000  -0.000  -0.000  -0.000   0.000  -0.000   0.000  -0.000   0.000  -0.000
 -0.000   0.000  -0.000   0.000  -0.000   0.000  -0.000   0.000  -0.000   0.000  -0.000  -0.000  -0.000   0.000  -0.000   0.000
  0.000  -0.000   0.000   0.000  -0.000  -0.000   0.000  -0.000  -0.000   0.000  -0.000  -0.000  -0.000   0.000   0.000  -0.000
  0.000   0.000   0.000   0.000  -0.000  -0.000  -0.000  -0.000  -0.000   0.000   0.000  -0.000  -0.000   0.000   0.000  -0.000
  0.000   0.000  -0.000  -0.000   0.000  -0.000   0.000   0.000   0.000  -0.000  -0.000  -0.000   0.000   0.000   0.000  -0.000
  0.000  -0.000   0.000  -0.000   0.000   0.000  -0.000  -0.000   0.000  -0.000   0.000   0.000   0.000   0.000  -0.000   0.000
 -0.000   0.000  -0.000   0.000   0.000  -0.000  -0.000  -0.000  -0.000  -0.000   0.000  -0.000   0.000  -0.000  -0.000  -0.000
  0.000  -0.000   0.000   0.000   0.000   0.000  -0.000  -0.000  -0.000   0.000   0.000   0.000   0.000  -0.000  -0.000   0.000
  0.000   0.000   0.000   0.000  -0.000  -0.000   0.000   0.000   0.000   0.000   0.000  -0.000  -0.000   0.000   0.000  -0.000
 -0.000   0.000  -0.000  -0.000   0.000   0.000  -0.000   0.000   0.000   0.000  -0.000  -0.000  -0.000   0.000   0.000   0.000
 -0.000  -0.000  -0.000  -0.000  -0.000  -0.000   0.000  -0.000  -0.000  -0.000   0.000  -0.000   0.000  -0.000   0.000   0.000
  0.000   0.000  -0.000  -0.000  -0.000  -0.000  -0.000  -0.000  -0.000   0.000  -0.000   0.000  -0.000  -0.000  -0.000   0.000
 -0.000  -0.000   0.000  -0.000  -0.000   0.000   0.000  -0.000  -0.000  -0.000  -0.000   0.000  -0.000  -0.000  -0.000   0.000


------------------------ aborting loop because EDIFF is reached ----------------------------------------


 


 total charge     
 
# of ion       s       p       d       tot
------------------------------------------
    1        0.438   0.234   9.237   9.908
    2        0.481   0.162   9.268   9.911
    3        0.491   0.157   9.267   9.916
    4        0.454   0.180   9.260   9.894
    5        0.459   0.220   9.237   9.917
    6        0.429   0.206   9.261   9.897
    7        0.453   0.366   9.194  10.012
    8        0.435   0.250   9.223   9.908
    9        0.481   0.463   9.206  10.150
   10        0.438   0.224   9.248   9.910
   11        0.473   0.191   9.258   9.922
   12        0.479   0.175   9.249   9.903
   13        0.451   0.249   9.212   9.912
   14        0.416   0.330   9.191   9.938
   15        0.463   0.174   9.264   9.901
   16        0.442   0.280   9.227   9.948
   17        0.420   0.270   9.222   9.912
   18        0.444   0.304   9.198   9.946
   19        0.478   0.459   9.190  10.127
   20        0.444   0.224   9.241   9.910
   21        0.477   0.472   9.225  10.174
   22        0.445   0.182   9.268   9.895
   23        0.455   0.210   9.240   9.905
   24        0.436   0.246   9.237   9.920
   25        0.449   0.232   9.230   9.911
   26        0.436   0.233   9.235   9.903
   27        0.456   0.186   9.258   9.899
   28        0.426   0.286   9.213   9.925
   29        0.460   0.223   9.228   9.911
   30        0.491   0.104   9.287   9.882
--------------------------------------------------
tot         13.599   7.492 277.075 298.166
 


 magnetization (x)
 
# of ion       s       p       d       tot
------------------------------------------
    1        0.000   0.000  -0.000  -0.000
    2       -0.000  -0.000  -0.000  -0.000
    3       -0.000  -0.000   0.000  -0.000
    4       -0.000  -0.000  -0.000  -0.000
    5       -0.000  -0.000  -0.000  -0.000
    6        0.000  -0.000   0.000   0.000
    7       -0.000  -0.000  -0.000  -0.000
    8       -0.000  -0.000  -0.000  -0.000
    9        0.000   0.000  -0.000  -0.000
   10       -0.000  -0.000   0.000  -0.000
   11       -0.000  -0.000  -0.000  -0.000
   12       -0.000  -0.000   0.000  -0.000
   13       -0.000   0.000  -0.000  -0.000
   14       -0.000   0.000  -0.000  -0.000
   15       -0.000  -0.000  -0.000  -0.000
   16       -0.000  -0.000   0.000  -0.000
   17        0.000   0.000  -0.000   0.000
   18       -0.000   0.000  -0.000  -0.000
   19       -0.000  -0.000  -0.000  -0.000
   20       -0.000  -0.000   0.000  -0.000
   21        0.000  -0.000   0.000   0.000
   22        0.000   0.000  -0.000  -0.000
   23        0.000   0.000  -0.000   0.000
   24       -0.000  -0.000   0.000  -0.000
   25        0.000   0.000  -0.000   0.000
   26        0.000   0.000  -0.000  -0.000
   27       -0.000  -0.000  -0.000  -0.000
   28       -0.000   0.000  -0.000  -0.000
   29        0.000   0.000  -0.000   0.000
   30        0.000   0.000  -0.000   0.000
--------------------------------------------------
tot         -0.000  -0.000  -0.000  -0.000
 
    CHARGE:  cpu time    0.1680: real time    0.1690
    FORLOC:  cpu time    0.0200: real time    0.0216
    FORNL :  cpu time    2.8120: real time    2.8102
    STRESS:  cpu time    4.7440: real time    4.7432
    FORCOR:  cpu time    0.3640: real time    0.3655
    FORHAR:  cpu time    0.0600: real time    0.0580
    MIXING:  cpu time    0.0720: real time    0.0736
    OFIELD:  cpu time    0.0000: real time    0.0001

  FORCE on cell =-STRESS in cart. coord.  units (eV):
  Direction    XX          YY          ZZ          XY          YZ          ZX
  --------------------------------------------------------------------------------------
  Alpha Z    54.32858    54.32858    54.32858
  Ewald   25253.96527 34196.15546 35054.69562  5391.44582  8637.91868  -292.73631
  Hartree 38277.24988 46665.10728 47467.84804  5083.58574  8044.91007  -170.46763
  E(xc)   -1926.53482 -1925.85651 -1925.73199     0.28126     0.84932    -0.26128
  Local  -66495.41880-83817.23473-85478.52838-10477.64004-16679.22158   456.71184
  n-local  -704.13463  -702.71944  -702.53000     1.79132     2.68324     0.66558
  augment  2824.70900  2819.82377  2819.45582     0.21551    -3.21227     2.81418
  Kinetic  2707.74060  2701.79823  2701.92371     0.26041    -3.98692     3.24407
  Fock        0.00000     0.00000     0.00000     0.00000     0.00000     0.00000
  -------------------------------------------------------------------------------------
  Total      -8.09492    -8.59735    -8.53859    -0.05998    -0.05945    -0.02955
  in kB      -1.07052    -1.13697    -1.12920    -0.00793    -0.00786    -0.00391
  external pressure =       -1.11 kB  Pullay stress =        0.00 kB


 VOLUME and BASIS-vectors are now :
 -----------------------------------------------------------------------------
  energy-cutoff  :      295.45
  volume of cell :    12115.08
      direct lattice vectors                 reciprocal lattice vectors
    22.967239000  0.000000000  0.000000000     0.043540279  0.000000000  0.000000000
     0.000000000 22.967239000  0.000000000     0.000000000  0.043540279  0.000000000
     0.000000000  0.000000000 22.967239000     0.000000000  0.000000000  0.043540279

  length of vectors
    22.967239000 22.967239000 22.967239000     0.043540279  0.043540279  0.043540279


 FORCES acting on ions
    electron-ion (+dipol)            ewald-force                    non-local-force                 convergence-correction
 -----------------------------------------------------------------------------------------------
   0.819E+02 -.158E+03 0.197E+04   -.805E+02 0.158E+03 -.197E+04   -.134E+01 0.149E+00 -.533E+01   0.777E-04 0.676E-04 0.908E-04
   -.948E+03 0.665E+03 0.149E+04   0.944E+03 -.662E+03 -.149E+04   0.409E+01 -.308E+01 -.664E+01   -.159E-04 0.787E-04 0.296E-06
   -.313E+03 0.143E+04 0.114E+04   0.312E+03 -.142E+04 -.113E+04   0.108E+01 -.661E+01 -.571E+01   -.150E-03 -.996E-05 -.108E-03
   -.733E+03 -.131E+04 0.147E+04   0.730E+03 0.131E+04 -.146E+04   0.330E+01 0.402E+01 -.757E+01   -.498E-04 -.126E-05 -.292E-03
   0.967E+03 0.118E+04 0.116E+04   -.966E+03 -.118E+04 -.116E+04   -.114E+01 -.245E+01 -.423E+01   -.584E-04 0.136E-03 -.486E-05
   0.868E+03 -.130E+04 0.136E+04   -.866E+03 0.130E+04 -.136E+04   -.161E+01 0.623E+01 -.377E+01   -.884E-04 0.142E-03 0.637E-04
   0.956E+03 0.127E+03 0.110E+04   -.954E+03 -.127E+03 -.110E+04   -.164E+01 0.181E+00 0.214E+01   -.707E-04 -.679E-04 0.737E-04
   -.652E+02 -.197E+04 0.469E+03   0.667E+02 0.196E+04 -.467E+03   -.150E+01 0.468E+01 -.217E+01   -.215E-03 0.380E-04 -.888E-04
   -.297E+03 -.398E+03 0.652E+03   0.296E+03 0.397E+03 -.651E+03   0.765E+00 0.103E+01 -.668E+00   -.163E-03 -.176E-04 -.750E-04
   -.170E+04 0.106E+03 0.102E+04   0.170E+04 -.106E+03 -.102E+04   0.532E+01 -.356E+00 -.783E+00   -.818E-04 0.179E-04 -.143E-03
   -.999E+02 0.194E+04 -.812E+02   0.988E+02 -.193E+04 0.798E+02   0.118E+01 -.769E+01 0.134E+01   0.192E-04 0.460E-04 0.265E-03
   0.185E+04 0.638E+03 0.487E+03   -.184E+04 -.636E+03 -.485E+03   -.857E+01 -.257E+01 -.177E+01   -.331E-04 0.876E-04 0.511E-04
   -.179E+04 -.842E+03 0.393E+03   0.179E+04 0.839E+03 -.391E+03   0.293E+01 0.270E+01 -.171E+01   0.781E-04 0.116E-03 -.114E-04
   -.642E+03 0.101E+04 0.563E+03   0.643E+03 -.101E+04 -.562E+03   -.238E+00 -.600E+00 -.858E+00   -.802E-04 0.482E-04 0.469E-04
   0.180E+04 -.782E+03 0.571E+03   -.179E+04 0.778E+03 -.568E+03   -.723E+01 0.432E+01 -.261E+01   -.620E-04 -.369E-04 -.596E-04
   0.110E+04 0.145E+04 -.472E+03   -.109E+04 -.145E+04 0.471E+03   -.158E+01 -.724E+00 0.126E+01   -.330E-04 0.744E-04 0.824E-04
   -.168E+04 0.840E+03 -.207E+03   0.168E+04 -.837E+03 0.207E+03   0.255E+01 -.293E+01 0.128E+00   -.685E-04 -.247E-03 0.228E-03
   0.124E+04 -.123E+04 -.118E+03   -.124E+04 0.123E+04 0.120E+03   -.109E+01 -.298E+00 -.138E+01   -.394E-04 -.103E-03 -.571E-04
   0.243E+03 0.461E+03 -.451E+03   -.243E+03 -.460E+03 0.449E+03   0.138E+00 -.851E+00 0.146E+01   -.120E-03 -.110E-04 0.199E-03
   -.740E+03 0.165E+04 -.872E+03   0.737E+03 -.164E+04 0.870E+03   0.307E+01 -.440E+01 0.222E+01   0.783E-04 -.447E-04 0.144E-03
   -.439E+03 -.573E+03 -.591E+03   0.438E+03 0.573E+03 0.592E+03   0.124E+01 0.553E+00 -.231E+00   -.171E-03 -.157E-03 0.866E-04
   -.112E+04 -.164E+04 -.564E+03   0.111E+04 0.164E+04 0.561E+03   0.357E+01 0.696E+01 0.286E+01   0.145E-04 0.813E-04 -.880E-05
   -.186E+04 -.310E+02 -.936E+03   0.185E+04 0.326E+02 0.933E+03   0.720E+01 -.166E+01 0.291E+01   0.135E-04 -.215E-03 0.114E-03
   0.181E+04 0.661E+02 -.787E+03   -.180E+04 -.661E+02 0.784E+03   -.487E+01 -.402E-01 0.345E+01   0.338E-04 -.400E-04 0.561E-04
   0.588E+03 -.175E+04 -.698E+03   -.588E+03 0.175E+04 0.695E+03   -.772E+00 0.537E+01 0.264E+01   -.325E-04 0.301E-04 -.589E-04
   -.776E+03 0.824E+03 -.166E+04   0.775E+03 -.822E+03 0.166E+04   0.174E+01 -.212E+01 0.532E+01   -.882E-05 -.166E-03 -.814E-04
   0.760E+03 0.109E+04 -.163E+04   -.756E+03 -.108E+04 0.162E+04   -.363E+01 -.461E+01 0.641E+01   0.173E-05 0.244E-04 -.551E-05
   0.103E+04 -.186E+03 -.148E+04   -.103E+04 0.186E+03 0.148E+04   -.356E+00 -.832E-01 0.137E+01   -.148E-03 -.251E-03 -.145E-03
   -.684E+03 -.528E+03 -.177E+04   0.682E+03 0.526E+03 0.176E+04   0.110E+01 0.151E+01 0.455E+01   0.677E-04 -.153E-03 0.878E-05
   0.608E+03 -.760E+03 -.154E+04   -.602E+03 0.756E+03 0.153E+04   -.520E+01 0.396E+01 0.910E+01   -.224E-03 0.727E-04 0.135E-03
 -----------------------------------------------------------------------------------------------
   0.149E+01 -.633E+00 -.180E+01   -.114E-12 -.341E-12 -.227E-11   -.152E+01 0.589E+00 0.173E+01   -.153E-02 -.462E-03 0.506E-03
 
 
 POSITION                                       TOTAL-FORCE (eV/Angst)
 -----------------------------------------------------------------------------------
     11.69256     11.50147      8.20482         0.026464     -0.025561      0.020187
     13.19633      9.64895      7.93238        -0.001254     -0.009986      0.015863
     11.89960      7.74704      8.55151         0.011659      0.011670     -0.022514
     12.89944     13.73001      8.96986         0.001211     -0.010518     -0.001031
      9.76641      8.62423      9.29750        -0.005888      0.019965      0.006480
     10.28508     13.35868      9.30119         0.027183      0.012979     -0.011487
      9.91946     10.97705      9.87546        -0.006009      0.016449     -0.004960
     12.03184     14.60786     11.12880        -0.002249     -0.004415     -0.004608
     12.01201     12.17113     10.46153        -0.006944     -0.002824      0.003707
     13.98824     11.42601      9.35643         0.006975     -0.001155      0.020720
     11.26815      7.35999     10.83222         0.005614     -0.004537     -0.025223
      7.86894      9.89678     10.32493        -0.014407     -0.007313      0.013876
     14.21315     13.22933     11.14877         0.004029     -0.011385     -0.002310
     12.06305      9.61538     10.12313        -0.000696      0.002130     -0.009863
      8.12272     12.41840     10.34920        -0.001268      0.018492     -0.007989
      9.66123      8.90320     11.71710        -0.002877      0.008009      0.016192
     13.62373     10.79862     11.83901        -0.008272      0.000795     -0.011839
     10.01693     13.18641     11.78672         0.002246     -0.005007     -0.009445
     11.08686     10.83918     12.17800         0.014009     -0.002517      0.002920
     12.11969      8.77999     12.63995         0.007953     -0.000457      0.028760
     12.35549     12.80816     12.75609         0.005718      0.010735     -0.020015
     13.65634     14.73248     13.10545        -0.024178      0.017647      0.028000
     14.54573     12.41241     13.53068        -0.008369      0.021450      0.009551
      8.69994     11.12553     12.36036        -0.002383     -0.013546      0.009827
     11.04501     14.64488     13.50933        -0.005644     -0.007573     -0.000101
     12.58425     10.80578     14.19136         0.001781     -0.003410     -0.000131
     10.25098      9.73643     14.06880         0.008950     -0.010423      0.010182
     10.34418     12.23650     14.12537        -0.010892      0.002629     -0.010039
     12.72668     13.22847     15.05337        -0.018448     -0.008156     -0.024215
     10.56460     13.95823     15.78929        -0.004016     -0.014166     -0.020497
 -----------------------------------------------------------------------------------
    total drift:                               -0.026105     -0.044235     -0.072282


--------------------------------------------------------------------------------------------------------



  FREE ENERGIE OF THE ION-ELECTRON SYSTEM (eV)
  ---------------------------------------------------
  free  energy   TOTEN  =       -85.10106940 eV

  energy  without entropy=      -85.10106940  energy(sigma->0) =      -85.10106940
 


--------------------------------------------------------------------------------------------------------


    POTLOK:  cpu time    0.3840: real time    0.3823


--------------------------------------------------------------------------------------------------------




--------------------------------------------------------------------------------------------------------


  
 reached required accuracy - stopping structural energy minimisation
     LOOP+:  cpu time  315.8400: real time  316.5825
    4ORBIT:  cpu time    0.0000: real time    0.0000
 


 total charge     
 
# of ion       s       p       d       tot
------------------------------------------
    1        0.438   0.234   9.237   9.908
    2        0.481   0.162   9.268   9.911
    3        0.491   0.157   9.267   9.916
    4        0.454   0.180   9.260   9.894
    5        0.459   0.220   9.237   9.917
    6        0.429   0.206   9.261   9.897
    7        0.453   0.366   9.194  10.012
    8        0.435   0.250   9.223   9.908
    9        0.481   0.463   9.206  10.150
   10        0.438   0.224   9.248   9.910
   11        0.473   0.191   9.258   9.922
   12        0.479   0.175   9.249   9.903
   13        0.451   0.249   9.212   9.912
   14        0.416   0.330   9.191   9.938
   15        0.463   0.174   9.264   9.901
   16        0.442   0.280   9.227   9.948
   17        0.420   0.270   9.222   9.912
   18        0.444   0.304   9.198   9.946
   19        0.478   0.459   9.190  10.127
   20        0.444   0.224   9.241   9.910
   21        0.477   0.472   9.225  10.174
   22        0.445   0.182   9.268   9.895
   23        0.455   0.210   9.240   9.905
   24        0.436   0.246   9.237   9.920
   25        0.449   0.232   9.230   9.911
   26        0.436   0.233   9.235   9.903
   27        0.456   0.186   9.258   9.899
   28        0.426   0.286   9.213   9.925
   29        0.460   0.223   9.228   9.911
   30        0.491   0.104   9.287   9.882
--------------------------------------------------
tot         13.599   7.492 277.075 298.166
 


 magnetization (x)
 
# of ion       s       p       d       tot
------------------------------------------
    1        0.000   0.000  -0.000  -0.000
    2       -0.000  -0.000  -0.000  -0.000
    3       -0.000  -0.000   0.000  -0.000
    4       -0.000  -0.000  -0.000  -0.000
    5       -0.000  -0.000  -0.000  -0.000
    6        0.000  -0.000   0.000   0.000
    7       -0.000  -0.000  -0.000  -0.000
    8       -0.000  -0.000  -0.000  -0.000
    9        0.000   0.000  -0.000  -0.000
   10       -0.000  -0.000   0.000  -0.000
   11       -0.000  -0.000  -0.000  -0.000
   12       -0.000  -0.000   0.000  -0.000
   13       -0.000   0.000  -0.000  -0.000
   14       -0.000   0.000  -0.000  -0.000
   15       -0.000  -0.000  -0.000  -0.000
   16       -0.000  -0.000   0.000  -0.000
   17        0.000   0.000  -0.000   0.000
   18       -0.000   0.000  -0.000  -0.000
   19       -0.000  -0.000  -0.000  -0.000
   20       -0.000  -0.000   0.000  -0.000
   21        0.000  -0.000   0.000   0.000
   22        0.000   0.000  -0.000  -0.000
   23        0.000   0.000  -0.000   0.000
   24       -0.000  -0.000   0.000  -0.000
   25        0.000   0.000  -0.000   0.000
   26        0.000   0.000  -0.000  -0.000
   27       -0.000  -0.000  -0.000  -0.000
   28       -0.000   0.000  -0.000  -0.000
   29        0.000   0.000  -0.000   0.000
   30        0.000   0.000  -0.000   0.000
--------------------------------------------------
tot         -0.000  -0.000  -0.000  -0.000
 

 total amount of memory used by VASP MPI-rank0    75592. kBytes
=======================================================================

   base      :      30000. kBytes
   nonl-proj :       3966. kBytes
   fftplans  :       8237. kBytes
   grid      :      20882. kBytes
   one-center:         46. kBytes
   wavefun   :      12461. kBytes
 
  
  
 General timing and accounting informations for this job:
 ========================================================
  
                  Total CPU time used (sec):      321.396
                            User time (sec):      319.120
                          System time (sec):        2.276
                         Elapsed time (sec):      322.155
  
                   Maximum memory used (kb):       39532.
                   Average memory used (kb):           0.
  
                          Minor page faults:        15995
                          Major page faults:           28
                 Voluntary context switches:          545
