 vasp.5.4.4.18Apr17-6-g9f103f2a35 (build Jan 10 2020 15:46:39) gamma-only       
  
 executed on             LinuxIFC date 2022.06.20  00:18:11
 running on   48 total cores
 distrk:  each k-point on   48 cores,    1 groups
 distr:  one band on NCORES_PER_BAND=  12 cores,    4 groups


--------------------------------------------------------------------------------------------------------


 INCAR:
 POTCAR:    PAW_PBE Cu 22Jun2005                  
 POTCAR:    PAW_PBE Cu 22Jun2005                  
   VRHFIN =Cu: d10 p1                                                           
   LEXCH  = PE                                                                  
   EATOM  =  1390.9808 eV,  102.2342 Ry                                         
                                                                                
   TITEL  = PAW_PBE Cu 22Jun2005                                                
   LULTRA =        F    use ultrasoft PP ?                                      
   IUNSCR =        1    unscreen: 0-lin 1-nonlin 2-no                           
   RPACOR =    2.000    partial core radius                                     
   POMASS =   63.546; ZVAL   =   11.000    mass and valenz                      
   RCORE  =    2.300    outmost cutoff radius                                   
   RWIGS  =    2.200; RWIGS  =    1.164    wigner-seitz radius (au A)           
   ENMAX  =  295.446; ENMIN  =  221.585 eV                                      
   ICORE  =        3    local potential                                         
   LCOR   =        T    correct aug charges                                     
   LPAW   =        T    paw PP                                                  
   EAUG   =  586.980                                                            
   DEXC   =    0.000                                                            
   RMAX   =    2.344    core radius for proj-oper                               
   RAUG   =    1.300    factor for augmentation sphere                          
   RDEP   =    2.302    radius for radial grids                                 
   RDEPT  =    1.771    core radius for aug-charge                              
                                                                                
   Atomic configuration                                                         
    9 entries                                                                   
     n  l   j            E        occ.                                          
     1  0  0.50     -8850.2468   2.0000                                         
     2  0  0.50     -1062.3498   2.0000                                         
     2  1  1.50      -916.8226   6.0000                                         
     3  0  0.50      -114.6929   2.0000                                         
     3  1  1.50       -72.1325   6.0000                                         
     3  2  2.50        -5.0394  10.0000                                         
     4  0  0.50        -4.6097   1.0000                                         
     4  1  0.50        -4.0817   0.0000                                         
     4  3  2.50        -1.3606   0.0000                                         
   Description                                                                  
     l       E           TYP  RCUT    TYP  RCUT                                 
     2     -5.0393973     23  2.200                                             
     2     10.8846608     23  2.200                                             
     0     -4.6097109     23  2.200                                             
     0      8.2520465     23  2.200                                             
     1     -2.7211652     23  2.200                                             
     1     21.7055443     23  2.200                                             
     3      2.7211652     23  2.300                                             
  local pseudopotential read in
  partial core-charges read in
  partial kinetic energy density read in
  atomic valenz-charges read in
  non local Contribution for L=           2  read in
    real space projection operators read in
  non local Contribution for L=           2  read in
    real space projection operators read in
  non local Contribution for L=           0  read in
    real space projection operators read in
  non local Contribution for L=           0  read in
    real space projection operators read in
  non local Contribution for L=           1  read in
    real space projection operators read in
  non local Contribution for L=           1  read in
    real space projection operators read in
    PAW grid and wavefunctions read in
 
   number of l-projection  operators is LMAX  =           6
   number of lm-projection operators is LMMAX =          18
 

 ----------------------------------------------------------------------------- 
|                                                                             |
|  ADVICE TO THIS USER RUNNING 'VASP/VAMP'   (HEAR YOUR MASTER'S VOICE ...):  |
|                                                                             |
|      You have a (more or less) 'large supercell' and for larger cells       |
|      it might be more efficient to use real space projection opertators     |
|      So try LREAL= Auto  in the INCAR   file.                               |
|      Mind:          For very  accurate calculation you might also keep the  |
|      reciprocal projection scheme          (i.e. LREAL=.FALSE.)             |
|                                                                             |
 ----------------------------------------------------------------------------- 

  PAW_PBE Cu 22Jun2005                  :
 energy of atom  1       EATOM=-1390.9808
 kinetic energy error for atom=    0.0452 (will be added to EATOM!!)
 
 
 POSCAR: unknown system                          
  positions in direct lattice
  velocities in cartesian coordinates
 exchange correlation table for  LEXCH =        8
   RHO(1)=    0.500       N(1)  =     2000
   RHO(2)=  100.500       N(2)  =     4000
 


--------------------------------------------------------------------------------------------------------


 ion  position               nearest neighbor table
   1  0.625  0.440  0.677-   2 2.38   7 2.42   5 2.48   4 2.51
   2  0.520  0.459  0.656-   1 2.38   3 2.41   5 2.44   4 2.44   6 2.44   8 2.45
   3  0.467  0.363  0.664-   2 2.41  11 2.42   5 2.42   8 2.46
   4  0.593  0.540  0.632-   2 2.44  14 2.45   7 2.50   1 2.51  10 2.51   6 2.53
   5  0.566  0.367  0.614-   3 2.42   2 2.44  12 2.44   7 2.45   1 2.48  11 2.48
   6  0.483  0.544  0.593-   2 2.44  13 2.46  10 2.46  15 2.47   8 2.51   4 2.53  21 2.60   9 2.61
                            14 2.64
   7  0.622  0.451  0.567-   1 2.42   5 2.45   9 2.45  16 2.47   4 2.50  14 2.54  12 2.61
   8  0.425  0.446  0.599-   2 2.45  15 2.45   3 2.46  23 2.47  11 2.51   6 2.51   9 2.56
   9  0.517  0.450  0.527-  23 2.41   7 2.45  12 2.46  11 2.47  16 2.48  21 2.49  14 2.56   8 2.56
                             6 2.61  19 2.78
  10  0.548  0.636  0.585-  17 2.44  14 2.46   6 2.46  29 2.48   4 2.51  13 2.57
  11  0.471  0.351  0.554-  20 2.42   3 2.42   9 2.47   5 2.48   8 2.51  12 2.61  23 2.62
  12  0.579  0.359  0.504-  18 2.43   5 2.44   9 2.46  16 2.48  20 2.52   7 2.61  11 2.61
  13  0.439  0.633  0.541-  22 2.41  17 2.45   6 2.46  30 2.51  15 2.52  29 2.56  10 2.57  21 2.58

  14  0.580  0.549  0.521-   4 2.45  10 2.46  26 2.48  16 2.49  29 2.53   7 2.54  21 2.56   9 2.56
                             6 2.64
  15  0.383  0.532  0.542-  21 2.44   8 2.45   6 2.47  30 2.49  24 2.51  13 2.52  23 2.56
  16  0.605  0.459  0.455-  18 2.43   7 2.47   9 2.48  12 2.48  25 2.49  14 2.49  26 2.52  19 2.56

  17  0.502  0.726  0.539-  29 2.41  10 2.44  13 2.45  22 2.47
  18  0.580  0.370  0.393-  12 2.43  16 2.43  20 2.46  25 2.48  19 2.52
  19  0.501  0.454  0.401-  20 2.43  25 2.43  28 2.45  27 2.50  18 2.52  31 2.53  16 2.56  21 2.58
                            26 2.60  23 2.70   9 2.78
  20  0.480  0.354  0.444-  11 2.42  19 2.43  23 2.44  18 2.46  12 2.52  27 2.55
  21  0.472  0.542  0.475-  15 2.44  26 2.48  30 2.49   9 2.49  14 2.56  28 2.56  13 2.58  19 2.58
                            32 2.59   6 2.60  29 2.60  23 2.67
  22  0.435  0.697  0.452-  13 2.41  32 2.45  30 2.47  17 2.47  29 2.49
  23  0.416  0.434  0.487-  24 2.37  27 2.40   9 2.41  20 2.44   8 2.47  15 2.56  11 2.62  21 2.67
                            19 2.70
  24  0.335  0.493  0.446-  28 2.36  23 2.37  15 2.51  30 2.52  27 2.70
  25  0.594  0.471  0.343-  19 2.43  31 2.43  26 2.45  18 2.48  16 2.49
  26  0.563  0.556  0.409-  31 2.42  25 2.45  29 2.46  14 2.48  21 2.48  32 2.48  16 2.52  19 2.60

  27  0.398  0.408  0.382-  23 2.40  28 2.46  19 2.50  20 2.55  24 2.70
  28  0.413  0.520  0.376-  24 2.36  31 2.44  19 2.45  27 2.46  32 2.46  30 2.52  21 2.56
  29  0.534  0.644  0.473-  17 2.41  26 2.46  32 2.46  10 2.48  22 2.49  14 2.53  13 2.56  21 2.60

  30  0.378  0.600  0.450-  22 2.47  21 2.49  15 2.49  13 2.51  24 2.52  28 2.52  32 2.52
  31  0.507  0.533  0.316-  26 2.42  25 2.43  28 2.44  32 2.47  19 2.53
  32  0.470  0.616  0.383-  22 2.45  28 2.46  29 2.46  31 2.47  26 2.48  30 2.52  21 2.59
 
  LATTYP: Found a simple cubic cell.
 ALAT       =    21.8643100000
  
  Lattice vectors:
  
 A1 = (  21.8643100000,   0.0000000000,   0.0000000000)
 A2 = (   0.0000000000,  21.8643100000,   0.0000000000)
 A3 = (   0.0000000000,   0.0000000000,  21.8643100000)


Analysis of symmetry for initial positions (statically):
=====================================================================
 Subroutine PRICEL returns:
 Original cell was already a primitive cell.
 

 Routine SETGRP: Setting up the symmetry group for a 
 simple cubic supercell.


 Subroutine GETGRP returns: Found  1 space group operations
 (whereof  1 operations were pure point group operations)
 out of a pool of 48 trial point group operations.


The static configuration has the point symmetry C_1 .


Analysis of symmetry for dynamics (positions and initial velocities):
=====================================================================
 Subroutine PRICEL returns:
 Original cell was already a primitive cell.
 

 Routine SETGRP: Setting up the symmetry group for a 
 simple cubic supercell.


 Subroutine GETGRP returns: Found  1 space group operations
 (whereof  1 operations were pure point group operations)
 out of a pool of 48 trial point group operations.


The dynamic configuration has the point symmetry C_1 .


Analysis of structural, dynamic, and magnetic symmetry:
=====================================================================
 Subroutine PRICEL returns:
 Original cell was already a primitive cell.
 

 Routine SETGRP: Setting up the symmetry group for a 
 simple cubic supercell.


 Subroutine GETGRP returns: Found  1 space group operations
 (whereof  1 operations were pure point group operations)
 out of a pool of 48 trial point group operations.


The magnetic configuration has the point symmetry C_1 .


 Subroutine INISYM returns: Found  1 space group operations
 (whereof  1 operations are pure point group operations),
 and found     1 'primitive' translations

 
 
 KPOINTS: Gamma-point only                        
  k-points in reciprocal lattice
Space group operators:
 irot       det(A)        alpha          n_x          n_y          n_z        tau_x        tau_y        tau_z
    1     1.000000     0.000001     1.000000     0.000000     0.000000     0.000000     0.000000     0.000000


--------------------------------------------------------------------------------------------------------




 Dimension of arrays:
   k-points           NKPTS =      1   k-points in BZ     NKDIM =      1   number of bands    NBANDS=    260
   number of dos      NEDOS =    301   number of ions     NIONS =     32
   non local maximal  LDIM  =      6   non local SUM 2l+1 LMDIM =     18
   total plane-waves  NPLWV = 884736
   max r-space proj   IRMAX =      1   max aug-charges    IRDMAX=   2651
   dimension x,y,z NGX =    96 NGY =   96 NGZ =   96
   dimension x,y,z NGXF=   192 NGYF=  192 NGZF=  192
   support grid    NGXF=   192 NGYF=  192 NGZF=  192
   ions per type =              32
   NGX,Y,Z   is equivalent  to a cutoff of   7.30,  7.30,  7.30 a.u.
   NGXF,Y,Z  is equivalent  to a cutoff of  14.60, 14.60, 14.60 a.u.

 SYSTEM =  unknown system                          
 POSCAR =  unknown system                          

 Startparameter for this run:
   NWRITE =      2    write-flag & timer
   PREC   = normal    normal or accurate (medium, high low for compatibility)
   ISTART =      0    job   : 0-new  1-cont  2-samecut
   ICHARG =      2    charge: 1-file 2-atom 10-const
   ISPIN  =      2    spin polarized calculation?
   LNONCOLLINEAR =      F non collinear calculations
   LSORBIT =      F    spin-orbit coupling
   INIWAV =      1    electr: 0-lowe 1-rand  2-diag
   LASPH  =      F    aspherical Exc in radial PAW
   METAGGA=      F    non-selfconsistent MetaGGA calc.

 Electronic Relaxation 1
   ENCUT  =  295.4 eV  21.71 Ry    4.66 a.u.  30.64 30.64 30.64*2*pi/ulx,y,z
   ENINI  =  295.4     initial cutoff
   ENAUG  =  587.0 eV  augmentation charge cutoff
   NELM   =     60;   NELMIN=  2; NELMDL=  0     # of ELM steps 
   EDIFF  = 0.1E-05   stopping-criterion for ELM
   LREAL  =      F    real-space projection
   NLSPLINE    = F    spline interpolate recip. space projectors
   LCOMPAT=      F    compatible to vasp.4.4
   GGA_COMPAT  = T    GGA compatible to vasp.4.4-vasp.4.6
   LMAXPAW     = -100 max onsite density
   LMAXMIX     =    2 max onsite mixed and CHGCAR
   VOSKOWN=      0    Vosko Wilk Nusair interpolation
   ROPT   =    0.00000
 Ionic relaxation
   EDIFFG = -.3E-01   stopping-criterion for IOM
   NSW    =    100    number of steps for IOM
   NBLOCK =      1;   KBLOCK =    100    inner block; outer block 
   IBRION =      2    ionic relax: 0-MD 1-quasi-New 2-CG
   NFREE  =      1    steps in history (QN), initial steepest desc. (CG)
   ISIF   =      2    stress and relaxation
   IWAVPR =     11    prediction:  0-non 1-charg 2-wave 3-comb
   ISYM   =      2    0-nonsym 1-usesym 2-fastsym
   LCORR  =      T    Harris-Foulkes like correction to forces

   POTIM  = 0.5000    time-step for ionic-motion
   TEIN   =    0.0    initial temperature
   TEBEG  =    0.0;   TEEND  =   0.0 temperature during run
   SMASS  =  -3.00    Nose mass-parameter (am)
   estimated Nose-frequenzy (Omega)   =  0.10E-29 period in steps =****** mass=  -0.109E-25a.u.
   SCALEE = 1.0000    scale energy and forces
   NPACO  =    256;   APACO  = 16.0  distance and # of slots for P.C.
   PSTRESS=    0.0 pullay stress

  Mass of Ions in am
   POMASS =  63.55
  Ionic Valenz
   ZVAL   =  11.00
  Atomic Wigner-Seitz radii
   RWIGS  =  -1.00
  virtual crystal weights 
   VCA    =   1.00
   NELECT =     352.0000    total number of electrons
   NUPDOWN=      -1.0000    fix difference up-down

 DOS related values:
   EMIN   =  10.00;   EMAX   =-10.00  energy-range for DOS
   EFERMI =   0.00
   ISMEAR =     0;   SIGMA  =   0.00  broadening in eV -4-tet -1-fermi 0-gaus

 Electronic relaxation 2 (details)
   IALGO  =     38    algorithm
   LDIAG  =      T    sub-space diagonalisation (order eigenvalues)
   LSUBROT=      F    optimize rotation matrix (better conditioning)
   TURBO    =      0    0=normal 1=particle mesh
   IRESTART =      0    0=no restart 2=restart with 2 vectors
   NREBOOT  =      0    no. of reboots
   NMIN     =      0    reboot dimension
   EREF     =   0.00    reference energy to select bands
   IMIX   =      4    mixing-type and parameters
     AMIX     =   0.40;   BMIX     =  1.00
     AMIX_MAG =   1.60;   BMIX_MAG =  1.00
     AMIN     =   0.10
     WC   =   100.;   INIMIX=   1;  MIXPRE=   1;  MAXMIX= -45

 Intra band minimization:
   WEIMIN = 0.0010     energy-eigenvalue tresh-hold
   EBREAK =  0.96E-09  absolut break condition
   DEPER  =   0.30     relativ break condition  

   TIME   =   0.40     timestep for ELM

  volume/ion in A,a.u.               =     326.63      2204.21
  Fermi-wavevector in a.u.,A,eV,Ry     =   0.528672  0.999046  3.802753  0.279494
  Thomas-Fermi vector in A             =   1.550412
 
 Write flags
   LWAVE        =      F    write WAVECAR
   LDOWNSAMPLE  =      F    k-point downsampling of WAVECAR
   LCHARG       =      F    write CHGCAR
   LVTOT        =      F    write LOCPOT, total local potential
   LVHAR        =      F    write LOCPOT, Hartree potential only
   LELF         =      F    write electronic localiz. function (ELF)
   LORBIT       =     11    0 simple, 1 ext, 2 COOP (PROOUT), +10 PAW based schemes


 Dipole corrections
   LMONO  =      F    monopole corrections only (constant potential shift)
   LDIPOL =      F    correct potential (dipole corrections)
   IDIPOL =      0    1-x, 2-y, 3-z, 4-all directions 
   EPSILON=  1.0000000 bulk dielectric constant

 Exchange correlation treatment:
   GGA     =    PE    GGA type
   LEXCH   =     8    internal setting for exchange type
   VOSKOWN=      0    Vosko Wilk Nusair interpolation
   LHFCALC =     F    Hartree Fock is set to
   LHFONE  =     F    Hartree Fock one center treatment
   AEXX    =    0.0000 exact exchange contribution

 Linear response parameters
   LEPSILON=     F    determine dielectric tensor
   LRPA    =     F    only Hartree local field effects (RPA)
   LNABLA  =     F    use nabla operator in PAW spheres
   LVEL    =     F    velocity operator in full k-point grid
   LINTERFAST=   F  fast interpolation
   KINTER  =     0    interpolate to denser k-point grid
   CSHIFT  =0.1000    complex shift for real part using Kramers Kronig
   OMEGAMAX=  -1.0    maximum frequency
   DEG_THRESHOLD= 0.2000000E-02 threshold for treating states as degnerate
   RTIME   =   -0.100 relaxation time in fs
  (WPLASMAI=    0.000 imaginary part of plasma frequency in eV, 0.658/RTIME)
   DFIELD  = 0.0000000 0.0000000 0.0000000 field for delta impulse in time
 
 Orbital magnetization related:
   ORBITALMAG=     F  switch on orbital magnetization
   LCHIMAG   =     F  perturbation theory with respect to B field
   DQ        =  0.001000  dq finite difference perturbation B field
   LLRAUG    =     F  two centre corrections for induced B field



--------------------------------------------------------------------------------------------------------


 conjugate gradient relaxation of ions
 charge density and potential will be updated during run
 spin polarized calculation
 Variant of blocked Davidson
 Davidson routine will perform the subspace rotation
 perform sub-space diagonalisation
    after iterative eigenvector-optimisation
 modified Broyden-mixing scheme, WC =      100.0
 initial mixing is a Kerker type mixing with AMIX =  0.4000 and BMIX =      1.0000
 Hartree-type preconditioning will be used
 using additional bands           84
 reciprocal scheme for non local part
 use partial core corrections
 calculate Harris-corrections to forces 
   (improved forces if not selfconsistent)
 use gradient corrections 
 use of overlap-Matrix (Vanderbilt PP)
 Gauss-broadening in eV      SIGMA  =   0.00


--------------------------------------------------------------------------------------------------------


  energy-cutoff  :      295.45
  volume of cell :    10452.19
      direct lattice vectors                 reciprocal lattice vectors
    21.864310000  0.000000000  0.000000000     0.045736637  0.000000000  0.000000000
     0.000000000 21.864310000  0.000000000     0.000000000  0.045736637  0.000000000
     0.000000000  0.000000000 21.864310000     0.000000000  0.000000000  0.045736637

  length of vectors
    21.864310000 21.864310000 21.864310000     0.045736637  0.045736637  0.045736637


 
 k-points in units of 2pi/SCALE and weight: Gamma-point only                        
   0.00000000  0.00000000  0.00000000       1.000
 
 k-points in reciprocal lattice and weights: Gamma-point only                        
   0.00000000  0.00000000  0.00000000       1.000
 
 position of ions in fractional coordinates (direct lattice) 
   0.62525104  0.44034338  0.67699041
   0.51987597  0.45947800  0.65648740
   0.46650335  0.36338526  0.66404214
   0.59250753  0.54038710  0.63171516
   0.56558264  0.36706041  0.61435320
   0.48328236  0.54391678  0.59348665
   0.62191042  0.45129773  0.56667753
   0.42473827  0.44553505  0.59937858
   0.51691970  0.45042900  0.52698755
   0.54809811  0.63563536  0.58501724
   0.47089029  0.35089217  0.55411131
   0.57891930  0.35940799  0.50363879
   0.43915078  0.63319559  0.54137632
   0.57959477  0.54905415  0.52073458
   0.38341712  0.53245495  0.54189113
   0.60452795  0.45891810  0.45541699
   0.50190071  0.72607761  0.53861942
   0.57972615  0.37018920  0.39325552
   0.50112954  0.45443237  0.40075251
   0.48049687  0.35423086  0.44392058
   0.47216203  0.54157387  0.47502272
   0.43508032  0.69733369  0.45197724
   0.41564432  0.43386899  0.48720444
   0.33528905  0.49327133  0.44552386
   0.59439323  0.47072406  0.34271454
   0.56316681  0.55573958  0.40857104
   0.39808818  0.40831438  0.38199336
   0.41343457  0.51958324  0.37598123
   0.53351838  0.64358587  0.47266498
   0.37779117  0.60011398  0.45027453
   0.50658150  0.53322157  0.31589565
   0.47042758  0.61634837  0.38332340
 
 position of ions in cartesian coordinates  (Angst):
  13.67068257  9.62780417 14.80192819
  11.36672937 10.04616943 14.35364402
  10.19977386  7.94516797 14.51882320
  12.95476831 11.81519107 13.81201609
  12.36607417  8.02552259 13.43240881
  10.56663534 11.89236509 12.97617610
  13.59764222  9.86731347 12.39001319
   9.28660920  9.74131645 13.10499908
  11.30209257  9.84831929 11.52221916
  11.98378699 13.89772856 12.79099829
  10.29569128  7.67201518 12.11526146
  12.65767104  7.85820771 11.01171463
   9.60172879 13.84438467 11.83681969
  12.67243973 12.00469014 11.38550228
   8.38315077 11.64176009 11.84807565
  13.21758650 10.03392760  9.95737825
  10.97371271 15.87518595 11.77654197
  12.67531226  8.09393143  8.59826060
  10.95685161  9.93585021  8.76217711
  10.50573252  7.74501333  9.70601718
  10.32349699 11.84113898 10.38604401
   9.51273099 15.24671997  9.88217049
   9.08777626  9.48624610 10.65238891
   7.33086373 10.78503727  9.74107179
  12.99599784 10.29205677  7.49321694
  12.31325372 12.15086246  8.93312388
   8.70392337  8.92751218  8.35202124
   9.03946160 11.36032903  8.22057017
  11.66501125 14.07156097 10.33449365
   8.26014326 13.12107809  9.84494191
  11.07605496 11.65852171  6.90684042
  10.28557444 13.47603183  8.38110165
 


--------------------------------------------------------------------------------------------------------


 use parallel FFT for orbitals z direction half grid
 k-point  1 :   0.0000 0.0000 0.0000  plane waves:   60237

 maximum and minimum number of plane-waves per node :      5027     5013

 maximum number of plane-waves:     60237
 maximum index in each direction: 
   IXMAX=   30   IYMAX=   30   IZMAX=   30
   IXMIN=  -30   IYMIN=  -30   IZMIN=    0


 parallel 3D FFT for wavefunctions:
    minimum data exchange during FFTs selected (reduces bandwidth)
 parallel 3D FFT for charge:
    minimum data exchange during FFTs selected (reduces bandwidth)


 total amount of memory used by VASP MPI-rank0    67077. kBytes
=======================================================================

   base      :      30000. kBytes
   nonl-proj :       3298. kBytes
   fftplans  :       6592. kBytes
   grid      :      16625. kBytes
   one-center:         46. kBytes
   wavefun   :      10516. kBytes
 
     INWAV:  cpu time    0.0000: real time    0.0000
 Broyden mixing: mesh for mixing (old mesh)
   NGX = 61   NGY = 61   NGZ = 61
  (NGX  =192   NGY  =192   NGZ  =192)
  gives a total of 226981 points

 initial charge density was supplied:
 charge density of overlapping atoms calculated
 number of electron     352.0000000 magnetization      96.0000000
 keeping initial charge density in first step


--------------------------------------------------------------------------------------------------------


 Maximum index for augmentation-charges          216 (set IRDMAX)


--------------------------------------------------------------------------------------------------------


 First call to EWALD:  gamma=   0.081
 Maximum number of real-space cells 3x 3x 3
 Maximum number of reciprocal cells 3x 3x 3

    FEWALD:  cpu time    0.0031: real time    0.0031


--------------------------------------- Iteration      1(   1)  ---------------------------------------


    POTLOK:  cpu time    0.2415: real time    0.2760
    SETDIJ:  cpu time    0.0146: real time    0.0146
     EDDAV:  cpu time    3.4978: real time    3.5069
       DOS:  cpu time    0.0038: real time    0.0038
    --------------------------------------------
      LOOP:  cpu time    3.7577: real time    3.8014

 eigenvalue-minimisations  :  1056
 total energy-change (2. order) : 0.2296979E+04  (-0.7859392E+04)
 number of electron     352.0000000 magnetization      96.0000000
 augmentation part      352.0000000 magnetization      96.0000000

 Free energy of the ion-electron system (eV)
  ---------------------------------------------------
  alpha Z        PSCENC =        71.64812854
  Ewald energy   TEWEN  =     97835.82324813
  -Hartree energ DENC   =   -138452.82196043
  -exchange      EXHF   =         0.00000000
  -V(xc)+E(xc)   XCENC  =      1475.59844706
  PAW double counting   =     39270.94975369   -42652.66805942
  entropy T*S    EENTRO =        -0.00000000
  eigenvalues    EBANDS =       238.51032598
  atomic energy  EATOM  =     44509.93870905
  Solvation  Ediel_sol  =         0.00000000
  ---------------------------------------------------
  free energy    TOTEN  =      2296.97859260 eV

  energy without entropy =     2296.97859260  energy(sigma->0) =     2296.97859260


--------------------------------------------------------------------------------------------------------




--------------------------------------- Iteration      1(   2)  ---------------------------------------


     EDDAV:  cpu time    3.5292: real time    3.5427
       DOS:  cpu time    0.0002: real time    0.0002
    --------------------------------------------
      LOOP:  cpu time    3.5294: real time    3.5428

 eigenvalue-minimisations  :  1092
 total energy-change (2. order) :-0.2190831E+04  (-0.1978395E+04)
 number of electron     352.0000000 magnetization      96.0000000
 augmentation part      352.0000000 magnetization      96.0000000

 Free energy of the ion-electron system (eV)
  ---------------------------------------------------
  alpha Z        PSCENC =        71.64812854
  Ewald energy   TEWEN  =     97835.82324813
  -Hartree energ DENC   =   -138452.82196043
  -exchange      EXHF   =         0.00000000
  -V(xc)+E(xc)   XCENC  =      1475.59844706
  PAW double counting   =     39270.94975369   -42652.66805942
  entropy T*S    EENTRO =         0.00000000
  eigenvalues    EBANDS =     -1952.32060968
  atomic energy  EATOM  =     44509.93870905
  Solvation  Ediel_sol  =         0.00000000
  ---------------------------------------------------
  free energy    TOTEN  =       106.14765694 eV

  energy without entropy =      106.14765694  energy(sigma->0) =      106.14765694


--------------------------------------------------------------------------------------------------------




--------------------------------------- Iteration      1(   3)  ---------------------------------------


     EDDAV:  cpu time    3.9840: real time    4.0005
       DOS:  cpu time    0.0003: real time    0.0003
    --------------------------------------------
      LOOP:  cpu time    3.9843: real time    4.0008

 eigenvalue-minimisations  :  1264
 total energy-change (2. order) :-0.1620611E+03  (-0.1528884E+03)
 number of electron     352.0000000 magnetization      96.0000000
 augmentation part      352.0000000 magnetization      96.0000000

 Free energy of the ion-electron system (eV)
  ---------------------------------------------------
  alpha Z        PSCENC =        71.64812854
  Ewald energy   TEWEN  =     97835.82324813
  -Hartree energ DENC   =   -138452.82196043
  -exchange      EXHF   =         0.00000000
  -V(xc)+E(xc)   XCENC  =      1475.59844706
  PAW double counting   =     39270.94975369   -42652.66805942
  entropy T*S    EENTRO =         0.00000000
  eigenvalues    EBANDS =     -2114.38167837
  atomic energy  EATOM  =     44509.93870905
  Solvation  Ediel_sol  =         0.00000000
  ---------------------------------------------------
  free energy    TOTEN  =       -55.91341175 eV

  energy without entropy =      -55.91341175  energy(sigma->0) =      -55.91341175


--------------------------------------------------------------------------------------------------------




--------------------------------------- Iteration      1(   4)  ---------------------------------------


     EDDAV:  cpu time    4.0475: real time    4.0614
       DOS:  cpu time    0.0002: real time    0.0002
    --------------------------------------------
      LOOP:  cpu time    4.0477: real time    4.0616

 eigenvalue-minimisations  :  1296
 total energy-change (2. order) :-0.9448933E+01  (-0.9045625E+01)
 number of electron     352.0000000 magnetization      96.0000000
 augmentation part      352.0000000 magnetization      96.0000000

 Free energy of the ion-electron system (eV)
  ---------------------------------------------------
  alpha Z        PSCENC =        71.64812854
  Ewald energy   TEWEN  =     97835.82324813
  -Hartree energ DENC   =   -138452.82196043
  -exchange      EXHF   =         0.00000000
  -V(xc)+E(xc)   XCENC  =      1475.59844706
  PAW double counting   =     39270.94975369   -42652.66805942
  entropy T*S    EENTRO =         0.00000000
  eigenvalues    EBANDS =     -2123.83061168
  atomic energy  EATOM  =     44509.93870905
  Solvation  Ediel_sol  =         0.00000000
  ---------------------------------------------------
  free energy    TOTEN  =       -65.36234507 eV

  energy without entropy =      -65.36234507  energy(sigma->0) =      -65.36234507


--------------------------------------------------------------------------------------------------------




--------------------------------------- Iteration      1(   5)  ---------------------------------------


     EDDAV:  cpu time    4.0744: real time    4.0899
       DOS:  cpu time    0.0003: real time    0.0003
    CHARGE:  cpu time    0.1206: real time    0.1210
    MIXING:  cpu time    0.0105: real time    0.0106
    --------------------------------------------
      LOOP:  cpu time    4.2058: real time    4.2219

 eigenvalue-minimisations  :  1280
 total energy-change (2. order) :-0.3266897E+00  (-0.3254789E+00)
 number of electron     351.9998033 magnetization      86.7239975
 augmentation part      207.1447135 magnetization      83.0009514

 Broyden mixing:
  rms(total) = 0.10050E+02    rms(broyden)= 0.10048E+02
  rms(prec ) = 0.10176E+02
  weight for this iteration     100.00

 Free energy of the ion-electron system (eV)
  ---------------------------------------------------
  alpha Z        PSCENC =        71.64812854
  Ewald energy   TEWEN  =     97835.82324813
  -Hartree energ DENC   =   -138452.82196043
  -exchange      EXHF   =         0.00000000
  -V(xc)+E(xc)   XCENC  =      1475.59844706
  PAW double counting   =     39270.94975369   -42652.66805942
  entropy T*S    EENTRO =         0.00000000
  eigenvalues    EBANDS =     -2124.15730141
  atomic energy  EATOM  =     44509.93870905
  Solvation  Ediel_sol  =         0.00000000
  ---------------------------------------------------
  free energy    TOTEN  =       -65.68903480 eV

  energy without entropy =      -65.68903480  energy(sigma->0) =      -65.68903480


--------------------------------------------------------------------------------------------------------




--------------------------------------- Iteration      1(   6)  ---------------------------------------


    POTLOK:  cpu time    0.2392: real time    0.2447
    SETDIJ:  cpu time    0.0076: real time    0.0076
     EDDAV:  cpu time    3.5522: real time    3.5595
       DOS:  cpu time    0.0003: real time    0.0003
    CHARGE:  cpu time    0.1139: real time    0.1141
    MIXING:  cpu time    0.0073: real time    0.0074
    --------------------------------------------
      LOOP:  cpu time    3.9204: real time    3.9335

 eigenvalue-minimisations  :  1100
 total energy-change (2. order) : 0.2159187E+03  (-0.1340022E+03)
 number of electron     351.9997613 magnetization      80.2065691
 augmentation part      242.8220857 magnetization      52.9263989

 Broyden mixing:
  rms(total) = 0.49956E+01    rms(broyden)= 0.49929E+01
  rms(prec ) = 0.51957E+01
  weight for this iteration     100.00

 eigenvalues of (default mixing * dielectric matrix)
  average eigenvalue GAMMA=   0.9447
  0.9447

 Free energy of the ion-electron system (eV)
  ---------------------------------------------------
  alpha Z        PSCENC =        71.64812854
  Ewald energy   TEWEN  =     97835.82324813
  -Hartree energ DENC   =   -137515.23886139
  -exchange      EXHF   =         0.00000000
  -V(xc)+E(xc)   XCENC  =      1587.87688193
  PAW double counting   =     39361.09096573   -42568.83915390
  entropy T*S    EENTRO =         0.00000000
  eigenvalues    EBANDS =     -3132.07024867
  atomic energy  EATOM  =     44509.93870905
  Solvation  Ediel_sol  =         0.00000000
  ---------------------------------------------------
  free energy    TOTEN  =       150.22966942 eV

  energy without entropy =      150.22966942  energy(sigma->0) =      150.22966942


--------------------------------------------------------------------------------------------------------




--------------------------------------- Iteration      1(   7)  ---------------------------------------


    POTLOK:  cpu time    0.2348: real time    0.2422
    SETDIJ:  cpu time    0.0073: real time    0.0073
     EDDAV:  cpu time    3.8490: real time    3.8567
       DOS:  cpu time    0.0005: real time    0.0004
    CHARGE:  cpu time    0.1116: real time    0.1118
    MIXING:  cpu time    0.0067: real time    0.0067
    --------------------------------------------
      LOOP:  cpu time    4.2099: real time    4.2253

 eigenvalue-minimisations  :  1220
 total energy-change (2. order) :-0.1681167E+01  (-0.5270966E+02)
 number of electron     351.9997793 magnetization      72.3588554
 augmentation part      227.7264656 magnetization      44.4339748

 Broyden mixing:
  rms(total) = 0.24586E+01    rms(broyden)= 0.24576E+01
  rms(prec ) = 0.24996E+01
  weight for this iteration     100.00

 eigenvalues of (default mixing * dielectric matrix)
  average eigenvalue GAMMA=   0.8783
  1.0580  0.6986

 Free energy of the ion-electron system (eV)
  ---------------------------------------------------
  alpha Z        PSCENC =        71.64812854
  Ewald energy   TEWEN  =     97835.82324813
  -Hartree energ DENC   =   -138289.87544414
  -exchange      EXHF   =         0.00000000
  -V(xc)+E(xc)   XCENC  =      1605.42687238
  PAW double counting   =     40566.68213274   -44051.68172687
  entropy T*S    EENTRO =         0.00000000
  eigenvalues    EBANDS =     -2099.41341785
  atomic energy  EATOM  =     44509.93870905
  Solvation  Ediel_sol  =         0.00000000
  ---------------------------------------------------
  free energy    TOTEN  =       148.54850198 eV

  energy without entropy =      148.54850198  energy(sigma->0) =      148.54850198


--------------------------------------------------------------------------------------------------------




--------------------------------------- Iteration      1(   8)  ---------------------------------------


    POTLOK:  cpu time    0.2353: real time    0.2427
    SETDIJ:  cpu time    0.0073: real time    0.0073
     EDDAV:  cpu time    4.1288: real time    4.1389
       DOS:  cpu time    0.0002: real time    0.0002
    CHARGE:  cpu time    0.1132: real time    0.1135
    MIXING:  cpu time    0.0076: real time    0.0077
    --------------------------------------------
      LOOP:  cpu time    4.4925: real time    4.5102

 eigenvalue-minimisations  :  1320
 total energy-change (2. order) : 0.9994766E+01  (-0.7382883E+01)
 number of electron     351.9997784 magnetization      67.6800308
 augmentation part      224.8222240 magnetization      37.5596590

 Broyden mixing:
  rms(total) = 0.22173E+01    rms(broyden)= 0.22167E+01
  rms(prec ) = 0.22906E+01
  weight for this iteration     100.00

 eigenvalues of (default mixing * dielectric matrix)
  average eigenvalue GAMMA=   0.7988
  1.1218  0.7118  0.5629

 Free energy of the ion-electron system (eV)
  ---------------------------------------------------
  alpha Z        PSCENC =        71.64812854
  Ewald energy   TEWEN  =     97835.82324813
  -Hartree energ DENC   =   -138451.80557440
  -exchange      EXHF   =         0.00000000
  -V(xc)+E(xc)   XCENC  =      1614.04831275
  PAW double counting   =     41276.71879912   -44780.25129986
  entropy T*S    EENTRO =         0.00000000
  eigenvalues    EBANDS =     -1917.57705532
  atomic energy  EATOM  =     44509.93870905
  Solvation  Ediel_sol  =         0.00000000
  ---------------------------------------------------
  free energy    TOTEN  =       158.54326800 eV

  energy without entropy =      158.54326800  energy(sigma->0) =      158.54326800


--------------------------------------------------------------------------------------------------------




--------------------------------------- Iteration      1(   9)  ---------------------------------------


    POTLOK:  cpu time    0.2365: real time    0.2428
    SETDIJ:  cpu time    0.0075: real time    0.0075
     EDDAV:  cpu time    3.9585: real time    3.9665
       DOS:  cpu time    0.0004: real time    0.0004
    CHARGE:  cpu time    0.1131: real time    0.1133
    MIXING:  cpu time    0.0075: real time    0.0076
    --------------------------------------------
      LOOP:  cpu time    4.3236: real time    4.3382

 eigenvalue-minimisations  :  1272
 total energy-change (2. order) :-0.1437121E+02  (-0.2857560E+01)
 number of electron     351.9997808 magnetization      56.2399303
 augmentation part      225.9404009 magnetization      28.0432938

 Broyden mixing:
  rms(total) = 0.16657E+01    rms(broyden)= 0.16652E+01
  rms(prec ) = 0.16966E+01
  weight for this iteration     100.00

 eigenvalues of (default mixing * dielectric matrix)
  average eigenvalue GAMMA=   0.9318
  1.5749  0.9524  0.7946  0.4055

 Free energy of the ion-electron system (eV)
  ---------------------------------------------------
  alpha Z        PSCENC =        71.64812854
  Ewald energy   TEWEN  =     97835.82324813
  -Hartree energ DENC   =   -138405.60978827
  -exchange      EXHF   =         0.00000000
  -V(xc)+E(xc)   XCENC  =      1599.66445183
  PAW double counting   =     41443.33885136   -44930.12500161
  entropy T*S    EENTRO =         0.00000000
  eigenvalues    EBANDS =     -1980.50654201
  atomic energy  EATOM  =     44509.93870905
  Solvation  Ediel_sol  =         0.00000000
  ---------------------------------------------------
  free energy    TOTEN  =       144.17205702 eV

  energy without entropy =      144.17205702  energy(sigma->0) =      144.17205702


--------------------------------------------------------------------------------------------------------




--------------------------------------- Iteration      1(  10)  ---------------------------------------


    POTLOK:  cpu time    0.2331: real time    0.2404
    SETDIJ:  cpu time    0.0071: real time    0.0072
     EDDAV:  cpu time    4.9115: real time    4.9213
       DOS:  cpu time    0.0004: real time    0.0004
    CHARGE:  cpu time    0.1143: real time    0.1145
    MIXING:  cpu time    0.0078: real time    0.0078
    --------------------------------------------
      LOOP:  cpu time    5.2743: real time    5.2917

 eigenvalue-minimisations  :  1680
 total energy-change (2. order) :-0.5229846E+02  (-0.2601836E+01)
 number of electron     351.9997790 magnetization      46.3476454
 augmentation part      226.9205296 magnetization      21.3047668

 Broyden mixing:
  rms(total) = 0.13139E+01    rms(broyden)= 0.13134E+01
  rms(prec ) = 0.13460E+01
  weight for this iteration     100.00

 eigenvalues of (default mixing * dielectric matrix)
  average eigenvalue GAMMA=   1.0584
  2.4546  1.1803  0.6922  0.5413  0.4236

 Free energy of the ion-electron system (eV)
  ---------------------------------------------------
  alpha Z        PSCENC =        71.64812854
  Ewald energy   TEWEN  =     97835.82324813
  -Hartree energ DENC   =   -138407.44043635
  -exchange      EXHF   =         0.00000000
  -V(xc)+E(xc)   XCENC  =      1556.71580075
  PAW double counting   =     41733.70041882   -45192.47901396
  entropy T*S    EENTRO =         0.00000000
  eigenvalues    EBANDS =     -2016.03325889
  atomic energy  EATOM  =     44509.93870905
  Solvation  Ediel_sol  =         0.00000000
  ---------------------------------------------------
  free energy    TOTEN  =        91.87359608 eV

  energy without entropy =       91.87359608  energy(sigma->0) =       91.87359608


--------------------------------------------------------------------------------------------------------




--------------------------------------- Iteration      1(  11)  ---------------------------------------


    POTLOK:  cpu time    0.2405: real time    0.2410
    SETDIJ:  cpu time    0.0075: real time    0.0075
     EDDAV:  cpu time    4.2942: real time    4.3027
       DOS:  cpu time    0.0003: real time    0.0003
    CHARGE:  cpu time    0.1115: real time    0.1118
    MIXING:  cpu time    0.0083: real time    0.0083
    --------------------------------------------
      LOOP:  cpu time    4.6623: real time    4.6716

 eigenvalue-minimisations  :  1400
 total energy-change (2. order) :-0.3441618E+02  (-0.2574677E+01)
 number of electron     351.9997793 magnetization      39.9766472
 augmentation part      227.4074927 magnetization      18.5646421

 Broyden mixing:
  rms(total) = 0.95903E+00    rms(broyden)= 0.95858E+00
  rms(prec ) = 0.97724E+00
  weight for this iteration     100.00

 eigenvalues of (default mixing * dielectric matrix)
  average eigenvalue GAMMA=   1.0497
  2.7996  1.2914  0.6263  0.6263  0.5593  0.3954

 Free energy of the ion-electron system (eV)
  ---------------------------------------------------
  alpha Z        PSCENC =        71.64812854
  Ewald energy   TEWEN  =     97835.82324813
  -Hartree energ DENC   =   -138417.31775267
  -exchange      EXHF   =         0.00000000
  -V(xc)+E(xc)   XCENC  =      1530.96625449
  PAW double counting   =     41887.53961013   -45329.14847127
  entropy T*S    EENTRO =         0.00000000
  eigenvalues    EBANDS =     -2031.99231313
  atomic energy  EATOM  =     44509.93870905
  Solvation  Ediel_sol  =         0.00000000
  ---------------------------------------------------
  free energy    TOTEN  =        57.45741327 eV

  energy without entropy =       57.45741327  energy(sigma->0) =       57.45741327


--------------------------------------------------------------------------------------------------------




--------------------------------------- Iteration      1(  12)  ---------------------------------------


    POTLOK:  cpu time    0.2320: real time    0.2400
    SETDIJ:  cpu time    0.0075: real time    0.0075
     EDDAV:  cpu time    4.2806: real time    4.2902
       DOS:  cpu time    0.0003: real time    0.0005
    CHARGE:  cpu time    0.1124: real time    0.1127
    MIXING:  cpu time    0.0097: real time    0.0098
    --------------------------------------------
      LOOP:  cpu time    4.6425: real time    4.6605

 eigenvalue-minimisations  :  1376
 total energy-change (2. order) :-0.2493346E+02  (-0.1666687E+01)
 number of electron     351.9997789 magnetization      31.1814180
 augmentation part      226.5398455 magnetization      11.6396392

 Broyden mixing:
  rms(total) = 0.72368E+00    rms(broyden)= 0.72353E+00
  rms(prec ) = 0.73717E+00
  weight for this iteration     100.00

 eigenvalues of (default mixing * dielectric matrix)
  average eigenvalue GAMMA=   1.2113
  3.6260  1.7158  0.8038  0.8038  0.6451  0.4400  0.4443

 Free energy of the ion-electron system (eV)
  ---------------------------------------------------
  alpha Z        PSCENC =        71.64812854
  Ewald energy   TEWEN  =     97835.82324813
  -Hartree energ DENC   =   -138449.15586586
  -exchange      EXHF   =         0.00000000
  -V(xc)+E(xc)   XCENC  =      1513.77455981
  PAW double counting   =     41884.60225888   -45327.19536655
  entropy T*S    EENTRO =         0.00000000
  eigenvalues    EBANDS =     -2006.91172338
  atomic energy  EATOM  =     44509.93870905
  Solvation  Ediel_sol  =         0.00000000
  ---------------------------------------------------
  free energy    TOTEN  =        32.52394861 eV

  energy without entropy =       32.52394861  energy(sigma->0) =       32.52394861


--------------------------------------------------------------------------------------------------------




--------------------------------------- Iteration      1(  13)  ---------------------------------------


    POTLOK:  cpu time    0.2346: real time    0.2410
    SETDIJ:  cpu time    0.0073: real time    0.0073
     EDDAV:  cpu time    4.2810: real time    4.2903
       DOS:  cpu time    0.0004: real time    0.0004
    CHARGE:  cpu time    0.1138: real time    0.1140
    MIXING:  cpu time    0.0102: real time    0.0102
    --------------------------------------------
      LOOP:  cpu time    4.6473: real time    4.6633

 eigenvalue-minimisations  :  1368
 total energy-change (2. order) :-0.4615641E+02  (-0.3434687E+01)
 number of electron     351.9997829 magnetization      23.2123290
 augmentation part      225.3318419 magnetization       9.1938719

 Broyden mixing:
  rms(total) = 0.68826E+00    rms(broyden)= 0.68748E+00
  rms(prec ) = 0.71192E+00
  weight for this iteration     100.00

 eigenvalues of (default mixing * dielectric matrix)
  average eigenvalue GAMMA=   1.2747
  4.6606  1.8632  0.9840  0.7018  0.7018  0.4580  0.4580  0.3704

 Free energy of the ion-electron system (eV)
  ---------------------------------------------------
  alpha Z        PSCENC =        71.64812854
  Ewald energy   TEWEN  =     97835.82324813
  -Hartree energ DENC   =   -138459.56235331
  -exchange      EXHF   =         0.00000000
  -V(xc)+E(xc)   XCENC  =      1480.08374100
  PAW double counting   =     41775.79356652   -45216.71969500
  entropy T*S    EENTRO =         0.00000000
  eigenvalues    EBANDS =     -2010.63781051
  atomic energy  EATOM  =     44509.93870905
  Solvation  Ediel_sol  =         0.00000000
  ---------------------------------------------------
  free energy    TOTEN  =       -13.63246557 eV

  energy without entropy =      -13.63246557  energy(sigma->0) =      -13.63246557


--------------------------------------------------------------------------------------------------------




--------------------------------------- Iteration      1(  14)  ---------------------------------------


    POTLOK:  cpu time    0.2394: real time    0.2404
    SETDIJ:  cpu time    0.0073: real time    0.0073
     EDDAV:  cpu time    4.3203: real time    4.3292
       DOS:  cpu time    0.0003: real time    0.0003
    CHARGE:  cpu time    0.1141: real time    0.1144
    MIXING:  cpu time    0.0096: real time    0.0096
    --------------------------------------------
      LOOP:  cpu time    4.6910: real time    4.7013

 eigenvalue-minimisations  :  1392
 total energy-change (2. order) :-0.2799114E+02  (-0.2677810E+01)
 number of electron     351.9997829 magnetization      17.3846724
 augmentation part      224.7733770 magnetization       8.3739493

 Broyden mixing:
  rms(total) = 0.52524E+00    rms(broyden)= 0.52425E+00
  rms(prec ) = 0.53921E+00
  weight for this iteration     100.00

 eigenvalues of (default mixing * dielectric matrix)
  average eigenvalue GAMMA=   1.2969
  5.4206  1.9509  1.1264  0.6477  0.6477  0.5521  0.5521  0.3872  0.3872

 Free energy of the ion-electron system (eV)
  ---------------------------------------------------
  alpha Z        PSCENC =        71.64812854
  Ewald energy   TEWEN  =     97835.82324813
  -Hartree energ DENC   =   -138467.23413801
  -exchange      EXHF   =         0.00000000
  -V(xc)+E(xc)   XCENC  =      1460.25197903
  PAW double counting   =     41730.74784700   -45170.47571178
  entropy T*S    EENTRO =         0.00000000
  eigenvalues    EBANDS =     -2012.32366917
  atomic energy  EATOM  =     44509.93870905
  Solvation  Ediel_sol  =         0.00000000
  ---------------------------------------------------
  free energy    TOTEN  =       -41.62360721 eV

  energy without entropy =      -41.62360721  energy(sigma->0) =      -41.62360721


--------------------------------------------------------------------------------------------------------




--------------------------------------- Iteration      1(  15)  ---------------------------------------


    POTLOK:  cpu time    0.2335: real time    0.2412
    SETDIJ:  cpu time    0.0075: real time    0.0075
     EDDAV:  cpu time    4.1485: real time    4.1572
       DOS:  cpu time    0.0005: real time    0.0004
    CHARGE:  cpu time    0.1138: real time    0.1140
    MIXING:  cpu time    0.0101: real time    0.0101
    --------------------------------------------
      LOOP:  cpu time    4.5138: real time    4.5304

 eigenvalue-minimisations  :  1320
 total energy-change (2. order) :-0.1354259E+02  (-0.1285754E+01)
 number of electron     351.9997829 magnetization      13.3052542
 augmentation part      224.7182927 magnetization       7.2409344

 Broyden mixing:
  rms(total) = 0.41821E+00    rms(broyden)= 0.41754E+00
  rms(prec ) = 0.43398E+00
  weight for this iteration     100.00

 eigenvalues of (default mixing * dielectric matrix)
  average eigenvalue GAMMA=   1.3310
  6.1397  2.1542  1.0594  0.7097  0.7097  0.6589  0.6589  0.4269  0.4269  0.3655

 Free energy of the ion-electron system (eV)
  ---------------------------------------------------
  alpha Z        PSCENC =        71.64812854
  Ewald energy   TEWEN  =     97835.82324813
  -Hartree energ DENC   =   -138466.89560293
  -exchange      EXHF   =         0.00000000
  -V(xc)+E(xc)   XCENC  =      1450.76971414
  PAW double counting   =     41720.01369006   -45156.80370918
  entropy T*S    EENTRO =         0.00000000
  eigenvalues    EBANDS =     -2019.66037079
  atomic energy  EATOM  =     44509.93870905
  Solvation  Ediel_sol  =         0.00000000
  ---------------------------------------------------
  free energy    TOTEN  =       -55.16619298 eV

  energy without entropy =      -55.16619298  energy(sigma->0) =      -55.16619298


--------------------------------------------------------------------------------------------------------




--------------------------------------- Iteration      1(  16)  ---------------------------------------


    POTLOK:  cpu time    0.2374: real time    0.2452
    SETDIJ:  cpu time    0.0075: real time    0.0075
     EDDAV:  cpu time    4.1635: real time    4.1717
       DOS:  cpu time    0.0004: real time    0.0004
    CHARGE:  cpu time    0.1141: real time    0.1144
    MIXING:  cpu time    0.0106: real time    0.0106
    --------------------------------------------
      LOOP:  cpu time    4.5336: real time    4.5498

 eigenvalue-minimisations  :  1328
 total energy-change (2. order) :-0.1064072E+02  (-0.7105913E+00)
 number of electron     351.9997836 magnetization      11.0583711
 augmentation part      224.9025745 magnetization       6.1433471

 Broyden mixing:
  rms(total) = 0.33480E+00    rms(broyden)= 0.33463E+00
  rms(prec ) = 0.34829E+00
  weight for this iteration     100.00

 eigenvalues of (default mixing * dielectric matrix)
  average eigenvalue GAMMA=   1.3877
  6.7578  2.5351  1.0216  1.0216  0.8048  0.8048  0.5906  0.5166  0.4190  0.4190
  0.3735

 Free energy of the ion-electron system (eV)
  ---------------------------------------------------
  alpha Z        PSCENC =        71.64812854
  Ewald energy   TEWEN  =     97835.82324813
  -Hartree energ DENC   =   -138447.85939447
  -exchange      EXHF   =         0.00000000
  -V(xc)+E(xc)   XCENC  =      1442.20951310
  PAW double counting   =     41656.99632113   -45089.02373015
  entropy T*S    EENTRO =         0.00000000
  eigenvalues    EBANDS =     -2045.53970553
  atomic energy  EATOM  =     44509.93870905
  Solvation  Ediel_sol  =         0.00000000
  ---------------------------------------------------
  free energy    TOTEN  =       -65.80691021 eV

  energy without entropy =      -65.80691021  energy(sigma->0) =      -65.80691021


--------------------------------------------------------------------------------------------------------




--------------------------------------- Iteration      1(  17)  ---------------------------------------


    POTLOK:  cpu time    0.2319: real time    0.2397
    SETDIJ:  cpu time    0.0072: real time    0.0072
     EDDAV:  cpu time    4.2952: real time    4.3035
       DOS:  cpu time    0.0003: real time    0.0003
    CHARGE:  cpu time    0.1144: real time    0.1147
    MIXING:  cpu time    0.0110: real time    0.0110
    --------------------------------------------
      LOOP:  cpu time    4.6600: real time    4.6764

 eigenvalue-minimisations  :  1384
 total energy-change (2. order) :-0.9852684E+01  (-0.4887054E+00)
 number of electron     351.9997826 magnetization       7.8678685
 augmentation part      225.4339424 magnetization       6.9742090

 Broyden mixing:
  rms(total) = 0.35444E+00    rms(broyden)= 0.35331E+00
  rms(prec ) = 0.36996E+00
  weight for this iteration     100.00

 eigenvalues of (default mixing * dielectric matrix)
  average eigenvalue GAMMA=   1.3708
  7.4771  2.4738  1.0382  1.0382  0.9226  0.7308  0.6970  0.4641  0.4641  0.4514
  0.3881  0.3045

 Free energy of the ion-electron system (eV)
  ---------------------------------------------------
  alpha Z        PSCENC =        71.64812854
  Ewald energy   TEWEN  =     97835.82324813
  -Hartree energ DENC   =   -138404.32951379
  -exchange      EXHF   =         0.00000000
  -V(xc)+E(xc)   XCENC  =      1433.50137886
  PAW double counting   =     41528.28469832   -44955.63445416
  entropy T*S    EENTRO =         0.00000000
  eigenvalues    EBANDS =     -2094.89178925
  atomic energy  EATOM  =     44509.93870905
  Solvation  Ediel_sol  =         0.00000000
  ---------------------------------------------------
  free energy    TOTEN  =       -75.65959431 eV

  energy without entropy =      -75.65959431  energy(sigma->0) =      -75.65959431


--------------------------------------------------------------------------------------------------------




--------------------------------------- Iteration      1(  18)  ---------------------------------------


    POTLOK:  cpu time    0.2330: real time    0.2406
    SETDIJ:  cpu time    0.0075: real time    0.0075
     EDDAV:  cpu time    4.2059: real time    4.2138
       DOS:  cpu time    0.0005: real time    0.0005
    CHARGE:  cpu time    0.1142: real time    0.1144
    MIXING:  cpu time    0.0116: real time    0.0116
    --------------------------------------------
      LOOP:  cpu time    4.5727: real time    4.5884

 eigenvalue-minimisations  :  1344
 total energy-change (2. order) :-0.3307141E+01  (-0.1049873E+00)
 number of electron     351.9997829 magnetization       5.1610991
 augmentation part      225.3501179 magnetization       4.6289482

 Broyden mixing:
  rms(total) = 0.22688E+00    rms(broyden)= 0.22677E+00
  rms(prec ) = 0.23742E+00
  weight for this iteration     100.00

 eigenvalues of (default mixing * dielectric matrix)
  average eigenvalue GAMMA=   1.4433
  8.4048  2.3500  1.2390  1.2390  1.1885  0.8132  0.6818  0.6818  0.5236  0.5236
  0.3835  0.3670  0.3670

 Free energy of the ion-electron system (eV)
  ---------------------------------------------------
  alpha Z        PSCENC =        71.64812854
  Ewald energy   TEWEN  =     97835.82324813
  -Hartree energ DENC   =   -138408.52058492
  -exchange      EXHF   =         0.00000000
  -V(xc)+E(xc)   XCENC  =      1430.95760748
  PAW double counting   =     41535.06788434   -44964.99828360
  entropy T*S    EENTRO =         0.00000000
  eigenvalues    EBANDS =     -2088.88344451
  atomic energy  EATOM  =     44509.93870905
  Solvation  Ediel_sol  =         0.00000000
  ---------------------------------------------------
  free energy    TOTEN  =       -78.96673548 eV

  energy without entropy =      -78.96673548  energy(sigma->0) =      -78.96673548


--------------------------------------------------------------------------------------------------------




--------------------------------------- Iteration      1(  19)  ---------------------------------------


    POTLOK:  cpu time    0.2336: real time    0.2414
    SETDIJ:  cpu time    0.0074: real time    0.0074
     EDDAV:  cpu time    4.1250: real time    4.1333
       DOS:  cpu time    0.0004: real time    0.0004
    CHARGE:  cpu time    0.1149: real time    0.1151
    MIXING:  cpu time    0.0121: real time    0.0121
    --------------------------------------------
      LOOP:  cpu time    4.4934: real time    4.5097

 eigenvalue-minimisations  :  1312
 total energy-change (2. order) :-0.4300546E+01  (-0.1005808E+00)
 number of electron     351.9997832 magnetization       2.5232664
 augmentation part      225.2262027 magnetization       2.2772789

 Broyden mixing:
  rms(total) = 0.16597E+00    rms(broyden)= 0.16593E+00
  rms(prec ) = 0.17631E+00
  weight for this iteration     100.00

 eigenvalues of (default mixing * dielectric matrix)
  average eigenvalue GAMMA=   1.4867
  9.2626  2.5830  1.4188  1.4188  1.0019  1.0019  0.7206  0.7206  0.5288  0.5288
  0.4995  0.3871  0.3710  0.3710

 Free energy of the ion-electron system (eV)
  ---------------------------------------------------
  alpha Z        PSCENC =        71.64812854
  Ewald energy   TEWEN  =     97835.82324813
  -Hartree energ DENC   =   -138400.41697930
  -exchange      EXHF   =         0.00000000
  -V(xc)+E(xc)   XCENC  =      1427.20218822
  PAW double counting   =     41517.59439016   -44950.58752522
  entropy T*S    EENTRO =         0.00000000
  eigenvalues    EBANDS =     -2094.46944087
  atomic energy  EATOM  =     44509.93870905
  Solvation  Ediel_sol  =         0.00000000
  ---------------------------------------------------
  free energy    TOTEN  =       -83.26728129 eV

  energy without entropy =      -83.26728129  energy(sigma->0) =      -83.26728129


--------------------------------------------------------------------------------------------------------




--------------------------------------- Iteration      1(  20)  ---------------------------------------


    POTLOK:  cpu time    0.2338: real time    0.2412
    SETDIJ:  cpu time    0.0074: real time    0.0074
     EDDAV:  cpu time    4.4206: real time    4.4303
       DOS:  cpu time    0.0003: real time    0.0003
    CHARGE:  cpu time    0.1148: real time    0.1151
    MIXING:  cpu time    0.0148: real time    0.0148
    --------------------------------------------
      LOOP:  cpu time    4.7917: real time    4.8091

 eigenvalue-minimisations  :  1416
 total energy-change (2. order) :-0.4143583E+01  (-0.6680677E-01)
 number of electron     351.9997829 magnetization       1.5409958
 augmentation part      225.3467860 magnetization       1.5273172

 Broyden mixing:
  rms(total) = 0.10446E+00    rms(broyden)= 0.10441E+00
  rms(prec ) = 0.11191E+00
  weight for this iteration     100.00

 eigenvalues of (default mixing * dielectric matrix)
  average eigenvalue GAMMA=   1.5074
  9.6813  2.8985  1.7639  1.1594  1.1594  1.1871  0.6835  0.6835  0.7187  0.5931
  0.5037  0.4618  0.3723  0.3723  0.3719

 Free energy of the ion-electron system (eV)
  ---------------------------------------------------
  alpha Z        PSCENC =        71.64812854
  Ewald energy   TEWEN  =     97835.82324813
  -Hartree energ DENC   =   -138371.98394874
  -exchange      EXHF   =         0.00000000
  -V(xc)+E(xc)   XCENC  =      1422.88504049
  PAW double counting   =     41467.38754642   -44901.23441670
  entropy T*S    EENTRO =         0.00000000
  eigenvalues    EBANDS =     -2121.87517123
  atomic energy  EATOM  =     44509.93870905
  Solvation  Ediel_sol  =         0.00000000
  ---------------------------------------------------
  free energy    TOTEN  =       -87.41086405 eV

  energy without entropy =      -87.41086405  energy(sigma->0) =      -87.41086405


--------------------------------------------------------------------------------------------------------




--------------------------------------- Iteration      1(  21)  ---------------------------------------


    POTLOK:  cpu time    0.2381: real time    0.2442
    SETDIJ:  cpu time    0.0075: real time    0.0075
     EDDAV:  cpu time    4.0012: real time    4.0093
       DOS:  cpu time    0.0004: real time    0.0004
    CHARGE:  cpu time    0.1101: real time    0.1103
    MIXING:  cpu time    0.0133: real time    0.0133
    --------------------------------------------
      LOOP:  cpu time    4.3706: real time    4.3850

 eigenvalue-minimisations  :  1272
 total energy-change (2. order) :-0.1933053E+01  (-0.2778296E-01)
 number of electron     351.9997827 magnetization       1.5268991
 augmentation part      225.4794876 magnetization       1.5420456

 Broyden mixing:
  rms(total) = 0.90668E-01    rms(broyden)= 0.90651E-01
  rms(prec ) = 0.95513E-01
  weight for this iteration     100.00

 eigenvalues of (default mixing * dielectric matrix)
  average eigenvalue GAMMA=   1.5033
  9.7433  3.1732  1.7143  1.4410  1.4410  0.8788  0.8788  0.7488  0.7488  0.6923
  0.5405  0.4862  0.4509  0.3819  0.3669  0.3669

 Free energy of the ion-electron system (eV)
  ---------------------------------------------------
  alpha Z        PSCENC =        71.64812854
  Ewald energy   TEWEN  =     97835.82324813
  -Hartree energ DENC   =   -138355.51480656
  -exchange      EXHF   =         0.00000000
  -V(xc)+E(xc)   XCENC  =      1420.70419668
  PAW double counting   =     41457.26432890   -44890.91231721
  entropy T*S    EENTRO =         0.00000000
  eigenvalues    EBANDS =     -2138.29540499
  atomic energy  EATOM  =     44509.93870905
  Solvation  Ediel_sol  =         0.00000000
  ---------------------------------------------------
  free energy    TOTEN  =       -89.34391747 eV

  energy without entropy =      -89.34391747  energy(sigma->0) =      -89.34391747


--------------------------------------------------------------------------------------------------------




--------------------------------------- Iteration      1(  22)  ---------------------------------------


    POTLOK:  cpu time    0.2372: real time    0.2444
    SETDIJ:  cpu time    0.0075: real time    0.0075
     EDDAV:  cpu time    3.9660: real time    3.9738
       DOS:  cpu time    0.0005: real time    0.0005
    CHARGE:  cpu time    0.1140: real time    0.1142
    MIXING:  cpu time    0.0139: real time    0.0139
    --------------------------------------------
      LOOP:  cpu time    4.3391: real time    4.3543

 eigenvalue-minimisations  :  1248
 total energy-change (2. order) :-0.9026283E+00  (-0.1046817E-01)
 number of electron     351.9997828 magnetization       1.2448629
 augmentation part      225.4551928 magnetization       1.2128404

 Broyden mixing:
  rms(total) = 0.61654E-01    rms(broyden)= 0.61642E-01
  rms(prec ) = 0.66144E-01
  weight for this iteration     100.00

 eigenvalues of (default mixing * dielectric matrix)
  average eigenvalue GAMMA=   1.5018
  9.9327  3.6075  1.6385  1.6385  1.2465  1.0294  1.0294  0.8807  0.6757  0.6757
  0.6060  0.5134  0.5134  0.4259  0.3695  0.3695  0.3778

 Free energy of the ion-electron system (eV)
  ---------------------------------------------------
  alpha Z        PSCENC =        71.64812854
  Ewald energy   TEWEN  =     97835.82324813
  -Hartree energ DENC   =   -138348.84068289
  -exchange      EXHF   =         0.00000000
  -V(xc)+E(xc)   XCENC  =      1419.85700211
  PAW double counting   =     41464.01854694   -44898.39883434
  entropy T*S    EENTRO =         0.00000000
  eigenvalues    EBANDS =     -2144.29266326
  atomic energy  EATOM  =     44509.93870905
  Solvation  Ediel_sol  =         0.00000000
  ---------------------------------------------------
  free energy    TOTEN  =       -90.24654572 eV

  energy without entropy =      -90.24654572  energy(sigma->0) =      -90.24654572


--------------------------------------------------------------------------------------------------------




--------------------------------------- Iteration      1(  23)  ---------------------------------------


    POTLOK:  cpu time    0.2370: real time    0.2443
    SETDIJ:  cpu time    0.0074: real time    0.0074
     EDDAV:  cpu time    4.0216: real time    4.0297
       DOS:  cpu time    0.0002: real time    0.0002
    CHARGE:  cpu time    0.1127: real time    0.1130
    MIXING:  cpu time    0.0149: real time    0.0150
    --------------------------------------------
      LOOP:  cpu time    4.3940: real time    4.4096

 eigenvalue-minimisations  :  1272
 total energy-change (2. order) :-0.7344476E+00  (-0.6497175E-02)
 number of electron     351.9997829 magnetization       0.6619286
 augmentation part      225.3989002 magnetization       0.6277979

 Broyden mixing:
  rms(total) = 0.31528E-01    rms(broyden)= 0.31517E-01
  rms(prec ) = 0.36123E-01
  weight for this iteration     100.00

 eigenvalues of (default mixing * dielectric matrix)
  average eigenvalue GAMMA=   1.5287
 10.3018  4.1176  1.8185  1.6226  1.2532  1.2532  0.9340  0.9340  0.7852  0.7055
  0.7055  0.5824  0.4931  0.3688  0.3688  0.3772  0.4475  0.4475

 Free energy of the ion-electron system (eV)
  ---------------------------------------------------
  alpha Z        PSCENC =        71.64812854
  Ewald energy   TEWEN  =     97835.82324813
  -Hartree energ DENC   =   -138339.51176879
  -exchange      EXHF   =         0.00000000
  -V(xc)+E(xc)   XCENC  =      1419.19477430
  PAW double counting   =     41462.98438342   -44898.21776631
  entropy T*S    EENTRO =         0.00000000
  eigenvalues    EBANDS =     -2152.84070164
  atomic energy  EATOM  =     44509.93870905
  Solvation  Ediel_sol  =         0.00000000
  ---------------------------------------------------
  free energy    TOTEN  =       -90.98099330 eV

  energy without entropy =      -90.98099330  energy(sigma->0) =      -90.98099330


--------------------------------------------------------------------------------------------------------




--------------------------------------- Iteration      1(  24)  ---------------------------------------


    POTLOK:  cpu time    0.2339: real time    0.2416
    SETDIJ:  cpu time    0.0076: real time    0.0076
     EDDAV:  cpu time    4.1179: real time    4.1260
       DOS:  cpu time    0.0005: real time    0.0004
    CHARGE:  cpu time    0.1148: real time    0.1150
    MIXING:  cpu time    0.0153: real time    0.0154
    --------------------------------------------
      LOOP:  cpu time    4.4899: real time    4.5060

 eigenvalue-minimisations  :  1312
 total energy-change (2. order) :-0.4687930E+00  (-0.2347820E-02)
 number of electron     351.9997829 magnetization       0.4455654
 augmentation part      225.3809950 magnetization       0.4451956

 Broyden mixing:
  rms(total) = 0.23421E-01    rms(broyden)= 0.23413E-01
  rms(prec ) = 0.26651E-01
  weight for this iteration     100.00

 eigenvalues of (default mixing * dielectric matrix)
  average eigenvalue GAMMA=   1.5426
 10.5188  4.3803  2.2253  1.4547  1.4547  1.1890  1.1890  0.9116  0.9116  0.6759
  0.6759  0.7090  0.5221  0.5221  0.3687  0.3687  0.3767  0.4320  0.4232

 Free energy of the ion-electron system (eV)
  ---------------------------------------------------
  alpha Z        PSCENC =        71.64812854
  Ewald energy   TEWEN  =     97835.82324813
  -Hartree energ DENC   =   -138329.13971498
  -exchange      EXHF   =         0.00000000
  -V(xc)+E(xc)   XCENC  =      1418.70646595
  PAW double counting   =     41461.40716100   -44897.04654763
  entropy T*S    EENTRO =         0.00000000
  eigenvalues    EBANDS =     -2162.78723638
  atomic energy  EATOM  =     44509.93870905
  Solvation  Ediel_sol  =         0.00000000
  ---------------------------------------------------
  free energy    TOTEN  =       -91.44978631 eV

  energy without entropy =      -91.44978631  energy(sigma->0) =      -91.44978631


--------------------------------------------------------------------------------------------------------




--------------------------------------- Iteration      1(  25)  ---------------------------------------


    POTLOK:  cpu time    0.2364: real time    0.2444
    SETDIJ:  cpu time    0.0074: real time    0.0075
     EDDAV:  cpu time    3.6817: real time    3.6891
       DOS:  cpu time    0.0003: real time    0.0003
    CHARGE:  cpu time    0.1135: real time    0.1137
    MIXING:  cpu time    0.0163: real time    0.0163
    --------------------------------------------
      LOOP:  cpu time    4.0555: real time    4.0711

 eigenvalue-minimisations  :  1128
 total energy-change (2. order) :-0.2224397E+00  (-0.7657163E-03)
 number of electron     351.9997829 magnetization       0.3264622
 augmentation part      225.3754462 magnetization       0.3217436

 Broyden mixing:
  rms(total) = 0.16834E-01    rms(broyden)= 0.16831E-01
  rms(prec ) = 0.19572E-01
  weight for this iteration     100.00

 eigenvalues of (default mixing * dielectric matrix)
  average eigenvalue GAMMA=   1.5327
 10.6426  4.5816  2.2530  1.5788  1.5788  1.1981  1.1981  0.9631  0.9631  0.7451
  0.6873  0.6873  0.5630  0.5630  0.4623  0.4623  0.3687  0.3687  0.3779  0.4116

 Free energy of the ion-electron system (eV)
  ---------------------------------------------------
  alpha Z        PSCENC =        71.64812854
  Ewald energy   TEWEN  =     97835.82324813
  -Hartree energ DENC   =   -138323.21477461
  -exchange      EXHF   =         0.00000000
  -V(xc)+E(xc)   XCENC  =      1418.44772225
  PAW double counting   =     41466.22310191   -44901.89680830
  entropy T*S    EENTRO =         0.00000000
  eigenvalues    EBANDS =     -2168.64155297
  atomic energy  EATOM  =     44509.93870905
  Solvation  Ediel_sol  =         0.00000000
  ---------------------------------------------------
  free energy    TOTEN  =       -91.67222601 eV

  energy without entropy =      -91.67222601  energy(sigma->0) =      -91.67222601


--------------------------------------------------------------------------------------------------------




--------------------------------------- Iteration      1(  26)  ---------------------------------------


    POTLOK:  cpu time    0.2371: real time    0.2446
    SETDIJ:  cpu time    0.0075: real time    0.0075
     EDDAV:  cpu time    3.9953: real time    4.0034
       DOS:  cpu time    0.0004: real time    0.0004
    CHARGE:  cpu time    0.1112: real time    0.1115
    MIXING:  cpu time    0.0168: real time    0.0168
    --------------------------------------------
      LOOP:  cpu time    4.3683: real time    4.3842

 eigenvalue-minimisations  :  1260
 total energy-change (2. order) :-0.1612672E+00  (-0.4060266E-03)
 number of electron     351.9997829 magnetization       0.2345794
 augmentation part      225.3907015 magnetization       0.2309836

 Broyden mixing:
  rms(total) = 0.80588E-02    rms(broyden)= 0.80556E-02
  rms(prec ) = 0.10474E-01
  weight for this iteration     100.00

 eigenvalues of (default mixing * dielectric matrix)
  average eigenvalue GAMMA=   1.5397
 10.6439  4.8243  2.4516  2.0669  1.2764  1.2764  1.1753  1.1753  0.9445  0.9445
  0.6806  0.6806  0.7068  0.5475  0.4916  0.4916  0.3684  0.3684  0.3767  0.4213
  0.4213

 Free energy of the ion-electron system (eV)
  ---------------------------------------------------
  alpha Z        PSCENC =        71.64812854
  Ewald energy   TEWEN  =     97835.82324813
  -Hartree energ DENC   =   -138317.33484379
  -exchange      EXHF   =         0.00000000
  -V(xc)+E(xc)   XCENC  =      1418.23524889
  PAW double counting   =     41468.01527245   -44903.44385672
  entropy T*S    EENTRO =         0.00000000
  eigenvalues    EBANDS =     -2174.71539975
  atomic energy  EATOM  =     44509.93870905
  Solvation  Ediel_sol  =         0.00000000
  ---------------------------------------------------
  free energy    TOTEN  =       -91.83349321 eV

  energy without entropy =      -91.83349321  energy(sigma->0) =      -91.83349321


--------------------------------------------------------------------------------------------------------




--------------------------------------- Iteration      1(  27)  ---------------------------------------


    POTLOK:  cpu time    0.2342: real time    0.2420
    SETDIJ:  cpu time    0.0075: real time    0.0075
     EDDAV:  cpu time    4.3845: real time    4.3932
       DOS:  cpu time    0.0003: real time    0.0003
    CHARGE:  cpu time    0.1116: real time    0.1119
    MIXING:  cpu time    0.0178: real time    0.0178
    --------------------------------------------
      LOOP:  cpu time    4.7559: real time    4.7726

 eigenvalue-minimisations  :  1440
 total energy-change (2. order) :-0.8917786E-01  (-0.2241286E-03)
 number of electron     351.9997828 magnetization       0.1956958
 augmentation part      225.4152092 magnetization       0.1957160

 Broyden mixing:
  rms(total) = 0.62381E-02    rms(broyden)= 0.62358E-02
  rms(prec ) = 0.78853E-02
  weight for this iteration     100.00

 eigenvalues of (default mixing * dielectric matrix)
  average eigenvalue GAMMA=   1.5349
 10.6143  4.9439  2.8537  1.7375  1.7375  1.2373  1.2373  1.1485  0.9870  0.9870
  0.6872  0.6872  0.7119  0.7119  0.5523  0.4881  0.4881  0.3686  0.3686  0.3767
  0.4241  0.4202

 Free energy of the ion-electron system (eV)
  ---------------------------------------------------
  alpha Z        PSCENC =        71.64812854
  Ewald energy   TEWEN  =     97835.82324813
  -Hartree energ DENC   =   -138312.15148077
  -exchange      EXHF   =         0.00000000
  -V(xc)+E(xc)   XCENC  =      1418.09025705
  PAW double counting   =     41469.14749023   -44904.27657823
  entropy T*S    EENTRO =        -0.00000000
  eigenvalues    EBANDS =     -2180.14244505
  atomic energy  EATOM  =     44509.93870905
  Solvation  Ediel_sol  =         0.00000000
  ---------------------------------------------------
  free energy    TOTEN  =       -91.92267106 eV

  energy without entropy =      -91.92267106  energy(sigma->0) =      -91.92267106


--------------------------------------------------------------------------------------------------------




--------------------------------------- Iteration      1(  28)  ---------------------------------------


    POTLOK:  cpu time    0.2325: real time    0.2402
    SETDIJ:  cpu time    0.0075: real time    0.0075
     EDDAV:  cpu time    3.9297: real time    3.9374
       DOS:  cpu time    0.0004: real time    0.0004
    CHARGE:  cpu time    0.1124: real time    0.1126
    MIXING:  cpu time    0.0179: real time    0.0179
    --------------------------------------------
      LOOP:  cpu time    4.3004: real time    4.3161

 eigenvalue-minimisations  :  1240
 total energy-change (2. order) :-0.3768870E-01  (-0.9628804E-04)
 number of electron     351.9997829 magnetization       0.1311614
 augmentation part      225.4104284 magnetization       0.1261148

 Broyden mixing:
  rms(total) = 0.51497E-02    rms(broyden)= 0.51488E-02
  rms(prec ) = 0.63500E-02
  weight for this iteration     100.00

 eigenvalues of (default mixing * dielectric matrix)
  average eigenvalue GAMMA=   1.5172
 10.6436  4.9662  2.9904  1.8156  1.8156  1.2648  1.2648  1.1170  1.0158  1.0158
  0.8223  0.8223  0.6746  0.6746  0.5722  0.4998  0.4998  0.4478  0.4478  0.3686
  0.3686  0.3769  0.4102

 Free energy of the ion-electron system (eV)
  ---------------------------------------------------
  alpha Z        PSCENC =        71.64812854
  Ewald energy   TEWEN  =     97835.82324813
  -Hartree energ DENC   =   -138309.84916365
  -exchange      EXHF   =         0.00000000
  -V(xc)+E(xc)   XCENC  =      1418.05628953
  PAW double counting   =     41472.72316764   -44907.91624028
  entropy T*S    EENTRO =         0.00000000
  eigenvalues    EBANDS =     -2182.38449871
  atomic energy  EATOM  =     44509.93870905
  Solvation  Ediel_sol  =         0.00000000
  ---------------------------------------------------
  free energy    TOTEN  =       -91.96035976 eV

  energy without entropy =      -91.96035976  energy(sigma->0) =      -91.96035976


--------------------------------------------------------------------------------------------------------




--------------------------------------- Iteration      1(  29)  ---------------------------------------


    POTLOK:  cpu time    0.2380: real time    0.2454
    SETDIJ:  cpu time    0.0075: real time    0.0075
     EDDAV:  cpu time    4.2414: real time    4.2496
       DOS:  cpu time    0.0004: real time    0.0004
    CHARGE:  cpu time    0.1185: real time    0.1188
    MIXING:  cpu time    0.0201: real time    0.0201
    --------------------------------------------
      LOOP:  cpu time    4.6260: real time    4.6419

 eigenvalue-minimisations  :  1344
 total energy-change (2. order) :-0.1763213E-01  (-0.6580058E-04)
 number of electron     351.9997829 magnetization       0.0785428
 augmentation part      225.4044359 magnetization       0.0745443

 Broyden mixing:
  rms(total) = 0.30112E-02    rms(broyden)= 0.30104E-02
  rms(prec ) = 0.40684E-02
  weight for this iteration     100.00

 eigenvalues of (default mixing * dielectric matrix)
  average eigenvalue GAMMA=   1.5316
 10.6647  5.0412  3.3513  2.2726  1.6043  1.6043  1.2177  1.2177  1.0109  1.0109
  0.8834  0.8834  0.6803  0.6803  0.6925  0.5602  0.4917  0.4917  0.3686  0.3686
  0.3766  0.4350  0.4350  0.4156

 Free energy of the ion-electron system (eV)
  ---------------------------------------------------
  alpha Z        PSCENC =        71.64812854
  Ewald energy   TEWEN  =     97835.82324813
  -Hartree energ DENC   =   -138307.70112317
  -exchange      EXHF   =         0.00000000
  -V(xc)+E(xc)   XCENC  =      1418.04071483
  PAW double counting   =     41474.58823837   -44909.85719127
  entropy T*S    EENTRO =         0.00000000
  eigenvalues    EBANDS =     -2184.45871636
  atomic energy  EATOM  =     44509.93870905
  Solvation  Ediel_sol  =         0.00000000
  ---------------------------------------------------
  free energy    TOTEN  =       -91.97799189 eV

  energy without entropy =      -91.97799189  energy(sigma->0) =      -91.97799189


--------------------------------------------------------------------------------------------------------




--------------------------------------- Iteration      1(  30)  ---------------------------------------


    POTLOK:  cpu time    0.2504: real time    0.2579
    SETDIJ:  cpu time    0.0078: real time    0.0078
     EDDAV:  cpu time    4.4020: real time    4.4108
       DOS:  cpu time    0.0003: real time    0.0003
    CHARGE:  cpu time    0.1126: real time    0.1129
    MIXING:  cpu time    0.0197: real time    0.0198
    --------------------------------------------
      LOOP:  cpu time    4.7929: real time    4.8094

 eigenvalue-minimisations  :  1392
 total energy-change (2. order) :-0.1122778E-01  (-0.4292455E-04)
 number of electron     351.9997829 magnetization       0.0528578
 augmentation part      225.4025698 magnetization       0.0512570

 Broyden mixing:
  rms(total) = 0.20541E-02    rms(broyden)= 0.20535E-02
  rms(prec ) = 0.27612E-02
  weight for this iteration     100.00

 eigenvalues of (default mixing * dielectric matrix)
  average eigenvalue GAMMA=   1.5335
[...]
 -0.000   0.000   0.000   0.000  -0.000   0.000  -0.000  -0.000  -0.000   0.000   0.000  -0.000   0.000  -0.000   0.000  -0.000
 -0.000   0.000  -0.000  -0.000   0.000  -0.000   0.000   0.000   0.000  -0.000  -0.000   0.000   0.000   0.000  -0.000  -0.000
 -0.000   0.000   0.000   0.000   0.000   0.000  -0.000  -0.000   0.000  -0.000   0.000   0.000  -0.000  -0.000  -0.000   0.000
  0.000   0.000  -0.000  -0.000   0.000   0.000  -0.000   0.000   0.000   0.000  -0.000   0.000  -0.000   0.000   0.000   0.000
  0.000   0.000  -0.000   0.000   0.000  -0.000   0.000   0.000   0.000  -0.000   0.000  -0.000  -0.000   0.000  -0.000   0.000
  0.000  -0.000  -0.000  -0.000  -0.000  -0.000   0.000   0.000  -0.000   0.000  -0.000  -0.000   0.000   0.000   0.000  -0.000
 -0.000  -0.000   0.000   0.000  -0.000   0.000   0.000  -0.000  -0.000  -0.000   0.000  -0.000   0.000  -0.000  -0.000  -0.000
 -0.000  -0.000   0.000  -0.000  -0.000   0.000  -0.000  -0.000  -0.000   0.000  -0.000   0.000   0.000  -0.000   0.000  -0.000


------------------------ aborting loop because EDIFF is reached ----------------------------------------


 


 total charge     
 
# of ion       s       p       d       tot
------------------------------------------
    1        0.491   0.132   9.270   9.894
    2        0.453   0.309   9.220   9.982
    3        0.482   0.142   9.278   9.902
    4        0.477   0.212   9.230   9.919
    5        0.453   0.244   9.237   9.934
    6        0.457   0.307   9.205   9.970
    7        0.450   0.280   9.217   9.946
    8        0.460   0.266   9.218   9.944
    9        0.440   0.358   9.222  10.019
   10        0.471   0.221   9.234   9.926
   11        0.467   0.243   9.225   9.936
   12        0.460   0.249   9.225   9.934
   13        0.456   0.283   9.216   9.954
   14        0.453   0.315   9.196   9.963
   15        0.454   0.271   9.216   9.941
   16        0.447   0.304   9.213   9.965
   17        0.497   0.135   9.267   9.899
   18        0.488   0.171   9.259   9.918
   19        0.436   0.346   9.200   9.981
   20        0.452   0.245   9.235   9.932
   21        0.438   0.352   9.226  10.016
   22        0.473   0.186   9.261   9.919
   23        0.450   0.329   9.197   9.977
   24        0.459   0.180   9.266   9.905
   25        0.470   0.184   9.266   9.920
   26        0.442   0.306   9.207   9.955
   27        0.489   0.150   9.248   9.888
   28        0.463   0.283   9.220   9.966
   29        0.458   0.283   9.212   9.952
   30        0.462   0.248   9.221   9.931
   31        0.474   0.182   9.258   9.914
   32        0.459   0.256   9.230   9.945
--------------------------------------------------
tot         14.783   7.974 295.394 318.151
 


 magnetization (x)
 
# of ion       s       p       d       tot
------------------------------------------
    1        0.000  -0.000   0.000   0.000
    2        0.000  -0.000   0.000   0.000
    3        0.000  -0.000   0.000   0.000
    4       -0.000  -0.000   0.000  -0.000
    5        0.000   0.000   0.000   0.000
    6        0.000   0.000   0.000   0.000
    7        0.000   0.000  -0.000   0.000
    8        0.000   0.000   0.000   0.000
    9        0.000   0.000   0.000   0.000
   10        0.000   0.000   0.000   0.000
   11        0.000   0.000   0.000   0.000
   12        0.000   0.000   0.000   0.000
   13        0.000   0.000  -0.000   0.000
   14       -0.000   0.000  -0.000   0.000
   15        0.000   0.000  -0.000   0.000
   16       -0.000   0.000  -0.000   0.000
   17       -0.000  -0.000   0.000  -0.000
   18        0.000  -0.000   0.000   0.000
   19       -0.000  -0.000   0.000   0.000
   20        0.000  -0.000   0.000   0.000
   21        0.000   0.000   0.000   0.000
   22        0.000  -0.000   0.000   0.000
   23        0.000   0.000  -0.000  -0.000
   24       -0.000   0.000  -0.000  -0.000
   25       -0.000   0.000   0.000  -0.000
   26        0.000   0.000  -0.000   0.000
   27        0.000   0.000  -0.000   0.000
   28        0.000  -0.000   0.000   0.000
   29       -0.000   0.000   0.000   0.000
   30        0.000   0.000  -0.000   0.000
   31       -0.000  -0.000   0.000  -0.000
   32        0.000  -0.000   0.000   0.000
--------------------------------------------------
tot          0.000   0.000   0.000   0.000
 
    CHARGE:  cpu time    0.1120: real time    0.1123
    FORLOC:  cpu time    0.0171: real time    0.0171
    FORNL :  cpu time    1.2445: real time    1.2471
    STRESS:  cpu time    1.9432: real time    1.9474
    FORCOR:  cpu time    0.2368: real time    0.2374
    FORHAR:  cpu time    0.0430: real time    0.0431
    MIXING:  cpu time    0.0083: real time    0.0083
    OFIELD:  cpu time    0.0000: real time    0.0000

  FORCE on cell =-STRESS in cart. coord.  units (eV):
  Direction    XX          YY          ZZ          XY          YZ          ZX
  --------------------------------------------------------------------------------------
  Alpha Z    71.64813    71.64813    71.64813
  Ewald   20933.12356 40755.19298 36152.08317 -4496.85373 -3152.34224  6194.18087
  Hartree 35160.20568 53735.58052 49407.65420 -4157.70728 -2948.90766  5701.09956
  E(xc)   -2055.34931 -2053.48798 -2053.95397    -0.46829    -0.23183     0.78036
  Local  -59273.85134-97665.85996-88732.92568  8650.40317  6098.91284-11891.90760
  n-local  -747.70087  -741.52260  -743.25464    -1.43926    -0.97741     2.05794
  augment  3014.49137  3008.72983  3008.63196     2.46881     1.29657    -3.00672
  Kinetic  2888.08047  2880.46531  2880.84285     3.62468     2.04046    -3.28102
  Fock        0.00000     0.00000     0.00000     0.00000     0.00000     0.00000
  -------------------------------------------------------------------------------------
  Total      -9.35230    -9.25378    -9.27397     0.02810    -0.20927    -0.07660
  in kB      -1.43358    -1.41848    -1.42157     0.00431    -0.03208    -0.01174
  external pressure =       -1.42 kB  Pullay stress =        0.00 kB


 VOLUME and BASIS-vectors are now :
 -----------------------------------------------------------------------------
  energy-cutoff  :      295.45
  volume of cell :    10452.19
      direct lattice vectors                 reciprocal lattice vectors
    21.864310000  0.000000000  0.000000000     0.045736637  0.000000000  0.000000000
     0.000000000 21.864310000  0.000000000     0.000000000  0.045736637  0.000000000
     0.000000000  0.000000000 21.864310000     0.000000000  0.000000000  0.045736637

  length of vectors
    21.864310000 21.864310000 21.864310000     0.045736637  0.045736637  0.045736637


 FORCES acting on ions
    electron-ion (+dipol)            ewald-force                    non-local-force                 convergence-correction
 -----------------------------------------------------------------------------------------------
   -.124E+04 0.303E+03 -.146E+04   0.123E+04 -.301E+03 0.145E+04   0.735E+01 -.198E+01 0.791E+01   -.630E-02 -.111E-02 0.516E-02
   0.478E+02 0.623E+02 -.177E+04   -.486E+02 -.629E+02 0.177E+04   0.839E+00 0.532E+00 0.123E+01   -.881E-02 0.494E-02 0.836E-02
   0.619E+03 0.112E+04 -.150E+04   -.614E+03 -.112E+04 0.149E+04   -.435E+01 -.564E+01 0.862E+01   -.542E-02 -.553E-02 -.678E-02
   -.114E+04 -.804E+03 -.137E+04   0.113E+04 0.801E+03 0.137E+04   0.350E+01 0.227E+01 0.420E+01   -.378E-02 -.763E-03 0.840E-02
   -.814E+03 0.149E+04 -.972E+03   0.812E+03 -.148E+04 0.971E+03   0.136E+01 -.369E+01 0.181E+01   -.113E-01 0.582E-02 0.182E-02
   0.439E+03 -.651E+03 -.145E+04   -.440E+03 0.650E+03 0.145E+04   0.105E+01 0.868E+00 0.117E+01   -.150E-02 0.427E-02 0.423E-02
   -.180E+04 0.305E+03 -.421E+03   0.179E+04 -.306E+03 0.420E+03   0.466E+01 0.672E+00 0.170E+01   0.626E-02 0.394E-03 0.947E-03
   0.140E+04 0.454E+03 -.127E+04   -.140E+04 -.451E+03 0.127E+04   -.420E+01 -.246E+01 0.205E+01   -.324E-02 -.791E-02 -.244E-02
   -.155E+03 0.482E+03 -.270E+03   0.155E+03 -.481E+03 0.269E+03   0.355E+00 -.830E+00 0.144E+01   0.401E-02 0.153E-02 0.623E-02
   -.747E+03 -.136E+04 -.114E+04   0.746E+03 0.136E+04 0.114E+04   0.196E+01 0.324E+01 0.357E+01   -.109E-01 -.205E-02 -.249E-02
   0.641E+03 0.179E+04 -.435E+03   -.639E+03 -.179E+04 0.434E+03   -.195E+01 -.358E+01 0.119E+01   0.203E-02 -.437E-03 -.719E-02
   -.110E+04 0.165E+04 0.690E+02   0.110E+04 -.165E+04 -.686E+02   0.163E+01 -.379E+01 -.402E+00   0.359E-02 0.346E-02 -.323E-02
   0.967E+03 -.126E+04 -.926E+03   -.967E+03 0.126E+04 0.924E+03   -.990E-01 0.337E+01 0.235E+01   0.184E-02 -.232E-02 0.162E-02
   -.147E+04 -.751E+03 -.141E+03   0.147E+04 0.750E+03 0.140E+03   0.592E+00 0.108E+01 0.530E+00   0.709E-02 -.104E-02 0.171E-02
   0.175E+04 -.315E+03 -.903E+03   -.174E+04 0.314E+03 0.902E+03   -.453E+01 0.907E+00 0.175E+01   0.484E-02 0.136E-02 0.194E-03
   -.175E+04 0.256E+03 0.517E+03   0.175E+04 -.255E+03 -.515E+03   0.275E+01 -.472E+00 -.147E+01   -.128E-03 -.178E-02 0.197E-02
   -.148E+03 -.179E+04 -.522E+03   0.147E+03 0.178E+04 0.520E+03   0.370E+00 0.101E+02 0.293E+01   0.326E-02 0.106E-02 -.411E-02
   -.919E+03 0.141E+04 0.117E+04   0.916E+03 -.140E+04 -.116E+04   0.215E+01 -.539E+01 -.655E+01   -.343E-03 0.249E-02 0.155E-02
   0.172E+02 0.624E+03 0.124E+04   -.178E+02 -.623E+03 -.124E+04   0.629E+00 -.324E+00 -.831E+00   -.138E-02 0.121E-02 0.275E-02
   0.412E+03 0.184E+04 0.688E+03   -.412E+03 -.184E+04 -.686E+03   0.767E-01 -.453E+01 -.183E+01   -.245E-02 -.372E-02 -.444E-02
   0.301E+03 -.421E+03 0.216E+03   -.300E+03 0.420E+03 -.216E+03   -.121E+01 0.112E+01 0.177E+00   0.797E-02 0.171E-02 -.281E-02
   0.693E+03 -.176E+04 0.537E+03   -.691E+03 0.175E+04 -.534E+03   -.224E+01 0.705E+01 -.308E+01   0.339E-02 -.241E-02 0.296E-02
   0.140E+04 0.966E+03 -.405E+02   -.140E+04 -.966E+03 0.422E+02   -.916E+00 -.769E-01 -.172E+01   -.623E-03 -.916E-03 -.703E-02
   0.203E+04 0.190E+03 0.371E+03   -.202E+04 -.189E+03 -.370E+03   -.829E+01 -.155E+01 -.903E+00   0.426E-02 0.474E-02 -.115E-02
   -.125E+04 0.231E+03 0.160E+04   0.125E+04 -.229E+03 -.159E+04   0.621E+01 -.253E+01 -.625E+01   0.180E-02 0.329E-02 -.118E-03
   -.130E+04 -.851E+03 0.104E+04   0.129E+04 0.851E+03 -.104E+04   0.192E+01 -.285E+00 -.213E+01   0.615E-02 0.366E-02 -.248E-02
   0.118E+04 0.112E+04 0.127E+04   -.118E+04 -.111E+04 -.126E+04   -.421E+01 -.429E+01 -.547E+01   0.977E-03 -.313E-02 -.504E-02
   0.113E+04 -.165E+03 0.155E+04   -.113E+04 0.166E+03 -.155E+04   -.199E+01 -.303E+00 -.237E+01   -.202E-02 -.390E-02 -.237E-02
   -.945E+03 -.151E+04 0.417E+03   0.944E+03 0.150E+04 -.419E+03   0.871E+00 0.332E+01 0.110E+01   0.955E-02 -.135E-02 -.187E-02
   0.167E+04 -.102E+04 0.435E+03   -.167E+04 0.101E+04 -.434E+03   -.412E+01 0.188E+01 -.139E+01   0.612E-02 0.861E-03 0.320E-02
   -.114E+03 -.335E+03 0.201E+04   0.115E+03 0.334E+03 -.200E+04   -.110E+01 0.804E+00 -.810E+01   -.367E-02 -.489E-02 0.973E-03
   0.187E+03 -.131E+04 0.147E+04   -.186E+03 0.130E+04 -.146E+04   -.109E+01 0.242E+01 -.327E+01   0.235E-02 0.179E-02 0.217E-02
 -----------------------------------------------------------------------------------------------
   0.191E+01 0.201E+01 0.217E+01   0.966E-12 -.227E-12 0.341E-11   -.204E+01 -.206E+01 -.205E+01   0.136E-01 -.664E-03 0.700E-03
 
 
 POSITION                                       TOTAL-FORCE (eV/Angst)
 -----------------------------------------------------------------------------------
     13.72528      9.66754     14.80638         0.014885      0.002066     -0.008108
     11.45731     10.01335     14.22415         0.008467      0.003367      0.006199
     10.27414      7.96111     14.55211         0.005083      0.005296      0.003990
     12.98652     11.86033     13.80255         0.006828      0.002380     -0.007791
     12.46720      7.95321     13.46432         0.009058      0.004961     -0.001130
     10.58274     11.88243     12.95537         0.007826      0.004353     -0.005184
     13.54269      9.88597     12.40801        -0.007166     -0.001626     -0.005886
      9.30838      9.72409     13.10650         0.007580      0.008100      0.007323
     11.26096      9.85603     11.46567         0.006016      0.000833     -0.003537
     11.96482     13.90431     12.79198         0.010984      0.004158      0.000985
     10.35690      7.66673     12.15459        -0.003402     -0.001325      0.011516
     12.65558      7.86240     11.03534        -0.004983     -0.004176     -0.006344
      9.58225     13.83484     11.83923         0.002034     -0.000723     -0.002167
     12.65365     12.01381     11.37665        -0.005205      0.004267     -0.004963
      8.40604     11.61120     11.82684        -0.005000      0.002380      0.002891
     13.19787     10.03420      9.95842        -0.002715     -0.001563     -0.000708
     10.93496     15.87954     11.82271        -0.004269     -0.006793      0.008726
     12.65301      8.08548      8.62211         0.002699     -0.008429      0.003283
     10.92275      9.93198      8.76036         0.002092     -0.003350     -0.001921
     10.48218      7.75271      9.72455        -0.005324      0.000440      0.004079
     10.32450     11.85755     10.35134        -0.012409     -0.003569      0.005713
      9.52277     15.25002      9.90246        -0.006728      0.001446     -0.006072
      9.02294      9.43946     10.67622        -0.000379      0.002415     -0.000162
      7.31867     10.79764      9.72109        -0.003731     -0.010341      0.002295
     12.97756     10.27345      7.50905         0.002558     -0.002733     -0.002780
     12.31419     12.17029      8.92292        -0.007585     -0.003690     -0.001060
      8.66370      8.94487      8.35716        -0.004564      0.002054      0.006780
      9.01388     11.37990      8.19201         0.002573      0.000579      0.008082
     11.66731     14.09877     10.34629        -0.014372     -0.004317     -0.001580
      8.24835     13.12049      9.84597        -0.003507     -0.000362     -0.009774
     11.06532     11.63960      6.91364         0.004040      0.005169      0.001467
     10.27452     13.47565      8.39297        -0.001385     -0.001268     -0.004163
 -----------------------------------------------------------------------------------
    total drift:                               -0.115350     -0.054925      0.120690


--------------------------------------------------------------------------------------------------------



  FREE ENERGIE OF THE ION-ELECTRON SYSTEM (eV)
  ---------------------------------------------------
  free  energy   TOTEN  =       -92.03778001 eV

  energy  without entropy=      -92.03778001  energy(sigma->0) =      -92.03778001
 
 d Force = 0.6000220E-03[ 0.424E-03, 0.776E-03]  d Energy = 0.5901838E-03 0.984E-05
 d Force =-0.1103776E+02[-0.110E+02,-0.111E+02]  d Ewald  =-0.1103776E+02 0.497E-05


--------------------------------------------------------------------------------------------------------


    POTLOK:  cpu time    0.2406: real time    0.2412


--------------------------------------------------------------------------------------------------------


 Conjugate gradient step on ions:
 trial-energy change:   -0.000590  1 .order   -0.000600   -0.000776   -0.000424
  (g-gl).g = 0.175E-03      g.g   = 0.317E-03  gl.gl    = 0.581E-03
 g(Force)  = 0.317E-03   g(Stress)= 0.000E+00 ortho     = 0.534E-04
 gamma     =   0.30036
 trial     =   2.33060
 opt step  =   5.13462  (harmonic =   5.13462) maximal distance =0.00737009
 next E    =   -92.038045   (d E  =  -0.00086)


--------------------------------------------------------------------------------------------------------


  
 reached required accuracy - stopping structural energy minimisation
     LOOP+:  cpu time   32.7125: real time   32.8837
    4ORBIT:  cpu time    0.0000: real time    0.0000
 


 total charge     
 
# of ion       s       p       d       tot
------------------------------------------
    1        0.491   0.132   9.270   9.894
    2        0.453   0.309   9.220   9.982
    3        0.482   0.142   9.278   9.902
    4        0.477   0.212   9.230   9.919
    5        0.453   0.244   9.237   9.934
    6        0.457   0.307   9.205   9.970
    7        0.450   0.280   9.217   9.946
    8        0.460   0.266   9.218   9.944
    9        0.440   0.358   9.222  10.019
   10        0.471   0.221   9.234   9.926
   11        0.467   0.243   9.225   9.936
   12        0.460   0.249   9.225   9.934
   13        0.456   0.283   9.216   9.954
   14        0.453   0.315   9.196   9.963
   15        0.454   0.271   9.216   9.941
   16        0.447   0.304   9.213   9.965
   17        0.497   0.135   9.267   9.899
   18        0.488   0.171   9.259   9.918
   19        0.436   0.346   9.200   9.981
   20        0.452   0.245   9.235   9.932
   21        0.438   0.352   9.226  10.016
   22        0.473   0.186   9.261   9.919
   23        0.450   0.329   9.197   9.977
   24        0.459   0.180   9.266   9.905
   25        0.470   0.184   9.266   9.920
   26        0.442   0.306   9.207   9.955
   27        0.489   0.150   9.248   9.888
   28        0.463   0.283   9.220   9.966
   29        0.458   0.283   9.212   9.952
   30        0.462   0.248   9.221   9.931
   31        0.474   0.182   9.258   9.914
   32        0.459   0.256   9.230   9.945
--------------------------------------------------
tot         14.783   7.974 295.394 318.151
 


 magnetization (x)
 
# of ion       s       p       d       tot
------------------------------------------
    1        0.000  -0.000   0.000   0.000
    2        0.000  -0.000   0.000   0.000
    3        0.000  -0.000   0.000   0.000
    4       -0.000  -0.000   0.000  -0.000
    5        0.000   0.000   0.000   0.000
    6        0.000   0.000   0.000   0.000
    7        0.000   0.000  -0.000   0.000
    8        0.000   0.000   0.000   0.000
    9        0.000   0.000   0.000   0.000
   10        0.000   0.000   0.000   0.000
   11        0.000   0.000   0.000   0.000
   12        0.000   0.000   0.000   0.000
   13        0.000   0.000  -0.000   0.000
   14       -0.000   0.000  -0.000   0.000
   15        0.000   0.000  -0.000   0.000
   16       -0.000   0.000  -0.000   0.000
   17       -0.000  -0.000   0.000  -0.000
   18        0.000  -0.000   0.000   0.000
   19       -0.000  -0.000   0.000   0.000
   20        0.000  -0.000   0.000   0.000
   21        0.000   0.000   0.000   0.000
   22        0.000  -0.000   0.000   0.000
   23        0.000   0.000  -0.000  -0.000
   24       -0.000   0.000  -0.000  -0.000
   25       -0.000   0.000   0.000  -0.000
   26        0.000   0.000  -0.000   0.000
   27        0.000   0.000  -0.000   0.000
   28        0.000  -0.000   0.000   0.000
   29       -0.000   0.000   0.000   0.000
   30        0.000   0.000  -0.000   0.000
   31       -0.000  -0.000   0.000  -0.000
   32        0.000  -0.000   0.000   0.000
--------------------------------------------------
tot          0.000   0.000   0.000   0.000
 

 total amount of memory used by VASP MPI-rank0    67077. kBytes
=======================================================================

   base      :      30000. kBytes
   nonl-proj :       3298. kBytes
   fftplans  :       6592. kBytes
   grid      :      16625. kBytes
   one-center:         46. kBytes
   wavefun   :      10516. kBytes
 
  
  
 General timing and accounting informations for this job:
 ========================================================
  
                  Total CPU time used (sec):     1068.583
                            User time (sec):     1062.756
                          System time (sec):        5.827
                         Elapsed time (sec):     1073.812
  
                   Maximum memory used (kb):      157800.
                   Average memory used (kb):           0.
  
                          Minor page faults:       701348
                          Major page faults:            0
                 Voluntary context switches:        12224
