 vasp.5.4.4.18Apr17-6-g9f103f2a35 (build Jan 23 2020 13:04:52) gamma-only       
  
 executed on           IFC91_ompi date 2020.12.30  13:47:24
 running on   44 total cores
 distrk:  each k-point on   44 cores,    1 groups
 distr:  one band on NCORES_PER_BAND=  11 cores,    4 groups


--------------------------------------------------------------------------------------------------------


 INCAR:
 POTCAR:    PAW_PBE Cu 22Jun2005                  
 POTCAR:    PAW_PBE Cu 22Jun2005                  
   VRHFIN =Cu: d10 p1                                                           
   LEXCH  = PE                                                                  
   EATOM  =  1390.9808 eV,  102.2342 Ry                                         
                                                                                
   TITEL  = PAW_PBE Cu 22Jun2005                                                
   LULTRA =        F    use ultrasoft PP ?                                      
   IUNSCR =        1    unscreen: 0-lin 1-nonlin 2-no                           
   RPACOR =    2.000    partial core radius                                     
   POMASS =   63.546; ZVAL   =   11.000    mass and valenz                      
   RCORE  =    2.300    outmost cutoff radius                                   
   RWIGS  =    2.200; RWIGS  =    1.164    wigner-seitz radius (au A)           
   ENMAX  =  295.446; ENMIN  =  221.585 eV                                      
   ICORE  =        3    local potential                                         
   LCOR   =        T    correct aug charges                                     
   LPAW   =        T    paw PP                                                  
   EAUG   =  586.980                                                            
   DEXC   =    0.000                                                            
   RMAX   =    2.344    core radius for proj-oper                               
   RAUG   =    1.300    factor for augmentation sphere                          
   RDEP   =    2.302    radius for radial grids                                 
   RDEPT  =    1.771    core radius for aug-charge                              
                                                                                
   Atomic configuration                                                         
    9 entries                                                                   
     n  l   j            E        occ.                                          
     1  0  0.50     -8850.2468   2.0000                                         
     2  0  0.50     -1062.3498   2.0000                                         
     2  1  1.50      -916.8226   6.0000                                         
     3  0  0.50      -114.6929   2.0000                                         
     3  1  1.50       -72.1325   6.0000                                         
     3  2  2.50        -5.0394  10.0000                                         
     4  0  0.50        -4.6097   1.0000                                         
     4  1  0.50        -4.0817   0.0000                                         
     4  3  2.50        -1.3606   0.0000                                         
   Description                                                                  
     l       E           TYP  RCUT    TYP  RCUT                                 
     2     -5.0393973     23  2.200                                             
     2     10.8846608     23  2.200                                             
     0     -4.6097109     23  2.200                                             
     0      8.2520465     23  2.200                                             
     1     -2.7211652     23  2.200                                             
     1     21.7055443     23  2.200                                             
     3      2.7211652     23  2.300                                             
  local pseudopotential read in
  partial core-charges read in
  partial kinetic energy density read in
  atomic valenz-charges read in
  non local Contribution for L=           2  read in
    real space projection operators read in
  non local Contribution for L=           2  read in
    real space projection operators read in
  non local Contribution for L=           0  read in
    real space projection operators read in
  non local Contribution for L=           0  read in
    real space projection operators read in
  non local Contribution for L=           1  read in
    real space projection operators read in
  non local Contribution for L=           1  read in
    real space projection operators read in
    PAW grid and wavefunctions read in
 
   number of l-projection  operators is LMAX  =           6
   number of lm-projection operators is LMMAX =          18
 

 ----------------------------------------------------------------------------- 
|                                                                             |
|  ADVICE TO THIS USER RUNNING 'VASP/VAMP'   (HEAR YOUR MASTER'S VOICE ...):  |
|                                                                             |
|      You have a (more or less) 'large supercell' and for larger cells       |
|      it might be more efficient to use real space projection opertators     |
|      So try LREAL= Auto  in the INCAR   file.                               |
|      Mind:          For very  accurate calculation you might also keep the  |
|      reciprocal projection scheme          (i.e. LREAL=.FALSE.)             |
|                                                                             |
 ----------------------------------------------------------------------------- 

  PAW_PBE Cu 22Jun2005                  :
 energy of atom  1       EATOM=-1390.9808
 kinetic energy error for atom=    0.0452 (will be added to EATOM!!)
 
 
 POSCAR: unknown system                          
  positions in direct lattice
  No initial velocities read in
 exchange correlation table for  LEXCH =        8
   RHO(1)=    0.500       N(1)  =     2000
   RHO(2)=  100.500       N(2)  =     4000
 


--------------------------------------------------------------------------------------------------------


 ion  position               nearest neighbor table
   1  0.441  0.678  0.577-  25 2.40  13 2.42  21 2.43  15 2.46
   2  0.440  0.472  0.654-  26 2.41  24 2.42  31 2.43  13 2.45   4 2.52  14 2.58
   3  0.592  0.360  0.568-  31 2.35   7 2.40  20 2.50  11 2.53   6 2.57
   4  0.429  0.382  0.585-  24 2.38  17 2.41  31 2.44  26 2.49  11 2.51   2 2.52  29 2.54
   5  0.553  0.646  0.439-  25 2.36  16 2.40  30 2.42  23 2.47  21 2.48  27 2.58
   6  0.621  0.456  0.627-  20 2.36  31 2.44  14 2.48  19 2.52   3 2.57
   7  0.583  0.359  0.460-   3 2.40  22 2.43  10 2.43  11 2.47  29 2.53  20 2.70
   8  0.504  0.526  0.475-  10 2.45  30 2.46  11 2.48  27 2.52  15 2.52  18 2.55  26 2.56  21 2.58
                            14 2.60  16 2.65  12 2.67
   9  0.386  0.420  0.372-  18 2.44  17 2.46  12 2.46  32 2.50  22 2.54
  10  0.573  0.460  0.419-  20 2.43   7 2.43  16 2.44   8 2.45  12 2.46  22 2.55  30 2.59  11 2.70

  11  0.510  0.422  0.516-  29 2.34  20 2.44   7 2.47   8 2.48   4 2.51  14 2.51  22 2.53   3 2.53
                            26 2.54  17 2.54  10 2.70  31 2.72
  12  0.478  0.483  0.365-  32 2.40  28 2.43  16 2.44  22 2.45  10 2.46   9 2.46  18 2.56   8 2.67
                            27 2.70
  13  0.445  0.575  0.615-   1 2.42  14 2.45  15 2.45   2 2.45  26 2.48  21 2.56
  14  0.529  0.508  0.589-  19 2.42  13 2.45   6 2.48  11 2.51  31 2.54  26 2.57   2 2.58  21 2.60
                             8 2.60  20 2.63
  15  0.418  0.593  0.509-  25 2.42  13 2.45  26 2.46   1 2.46  18 2.48  27 2.50   8 2.52  21 2.60

  16  0.558  0.560  0.373-   5 2.40  28 2.43  10 2.44  12 2.44  30 2.46  27 2.53   8 2.65
  17  0.404  0.398  0.480-   4 2.41  22 2.42   9 2.46  18 2.50  26 2.52  11 2.54  29 2.62
  18  0.395  0.505  0.443-  32 2.42  26 2.43   9 2.44  15 2.48  17 2.50   8 2.55  12 2.56  27 2.57

  19  0.626  0.559  0.579-  30 2.41  14 2.42  23 2.48   6 2.52  20 2.55  21 2.64
  20  0.614  0.460  0.520-   6 2.36  10 2.43  30 2.44  11 2.44   3 2.50  19 2.55  14 2.63   7 2.70

  21  0.527  0.617  0.544-  23 2.40   1 2.43   5 2.48  13 2.56   8 2.58  15 2.60  14 2.60  19 2.64
                            25 2.70  30 2.77
  22  0.488  0.383  0.411-  17 2.42   7 2.43  12 2.45  11 2.53   9 2.54  10 2.55  29 2.56
  23  0.626  0.656  0.522-  21 2.40  30 2.45   5 2.47  19 2.48
  24  0.438  0.369  0.692-  31 2.38   4 2.38   2 2.42
  25  0.459  0.687  0.470-   5 2.36   1 2.40  15 2.42  27 2.49  21 2.70
  26  0.422  0.488  0.548-   2 2.41  18 2.43  15 2.46  13 2.48   4 2.49  17 2.52  11 2.54   8 2.56
                            14 2.57
  27  0.453  0.597  0.402-  28 2.43  25 2.49  15 2.50   8 2.52  16 2.53  18 2.57   5 2.58  32 2.61
                            12 2.70
  28  0.478  0.570  0.298-  27 2.43  12 2.43  16 2.43  32 2.43
  29  0.488  0.319  0.508-  11 2.34   7 2.53   4 2.54  22 2.56  17 2.62
  30  0.610  0.559  0.471-  19 2.41   5 2.42  20 2.44  23 2.45   8 2.46  16 2.46  10 2.59  21 2.77

  31  0.524  0.404  0.637-   3 2.35  24 2.38   2 2.43   6 2.44   4 2.44  14 2.54  11 2.72
  32  0.384  0.528  0.336-  12 2.40  18 2.42  28 2.43   9 2.50  27 2.61
 
  LATTYP: Found a simple cubic cell.
 ALAT       =    22.0956080000
  
  Lattice vectors:
  
 A1 = (  22.0956080000,   0.0000000000,   0.0000000000)
 A2 = (   0.0000000000,  22.0956080000,   0.0000000000)
 A3 = (   0.0000000000,   0.0000000000,  22.0956080000)


Analysis of symmetry for initial positions (statically):
=====================================================================
 Subroutine PRICEL returns:
 Original cell was already a primitive cell.
 

 Routine SETGRP: Setting up the symmetry group for a 
 simple cubic supercell.


 Subroutine GETGRP returns: Found  1 space group operations
 (whereof  1 operations were pure point group operations)
 out of a pool of 48 trial point group operations.


The static configuration has the point symmetry C_1 .


Analysis of symmetry for dynamics (positions and initial velocities):
=====================================================================
 Subroutine PRICEL returns:
 Original cell was already a primitive cell.
 

 Routine SETGRP: Setting up the symmetry group for a 
 simple cubic supercell.


 Subroutine GETGRP returns: Found  1 space group operations
 (whereof  1 operations were pure point group operations)
 out of a pool of 48 trial point group operations.


The dynamic configuration has the point symmetry C_1 .


Analysis of structural, dynamic, and magnetic symmetry:
=====================================================================
 Subroutine PRICEL returns:
 Original cell was already a primitive cell.
 

 Routine SETGRP: Setting up the symmetry group for a 
 simple cubic supercell.


 Subroutine GETGRP returns: Found  1 space group operations
 (whereof  1 operations were pure point group operations)
 out of a pool of 48 trial point group operations.


The magnetic configuration has the point symmetry C_1 .


 Subroutine INISYM returns: Found  1 space group operations
 (whereof  1 operations are pure point group operations),
 and found     1 'primitive' translations

 
 
 KPOINTS: Gamma-point only                        
  k-points in reciprocal lattice
Space group operators:
 irot       det(A)        alpha          n_x          n_y          n_z        tau_x        tau_y        tau_z
    1     1.000000     0.000001     1.000000     0.000000     0.000000     0.000000     0.000000     0.000000


--------------------------------------------------------------------------------------------------------




 Dimension of arrays:
   k-points           NKPTS =      1   k-points in BZ     NKDIM =      1   number of bands    NBANDS=    260
   number of dos      NEDOS =    301   number of ions     NIONS =     32
   non local maximal  LDIM  =      6   non local SUM 2l+1 LMDIM =     18
   total plane-waves  NPLWV = 884736
   max r-space proj   IRMAX =      1   max aug-charges    IRDMAX=   2575
   dimension x,y,z NGX =    96 NGY =   96 NGZ =   96
   dimension x,y,z NGXF=   192 NGYF=  192 NGZF=  192
   support grid    NGXF=   192 NGYF=  192 NGZF=  192
   ions per type =              32
   NGX,Y,Z   is equivalent  to a cutoff of   7.22,  7.22,  7.22 a.u.
   NGXF,Y,Z  is equivalent  to a cutoff of  14.45, 14.45, 14.45 a.u.

 SYSTEM =  unknown system                          
 POSCAR =  unknown system                          

 Startparameter for this run:
   NWRITE =      2    write-flag & timer
   PREC   = normal    normal or accurate (medium, high low for compatibility)
   ISTART =      0    job   : 0-new  1-cont  2-samecut
   ICHARG =      2    charge: 1-file 2-atom 10-const
   ISPIN  =      2    spin polarized calculation?
   LNONCOLLINEAR =      F non collinear calculations
   LSORBIT =      F    spin-orbit coupling
   INIWAV =      1    electr: 0-lowe 1-rand  2-diag
   LASPH  =      F    aspherical Exc in radial PAW
   METAGGA=      F    non-selfconsistent MetaGGA calc.

 Electronic Relaxation 1
   ENCUT  =  295.4 eV  21.71 Ry    4.66 a.u.  30.97 30.97 30.97*2*pi/ulx,y,z
   ENINI  =  295.4     initial cutoff
   ENAUG  =  587.0 eV  augmentation charge cutoff
   NELM   =     60;   NELMIN=  2; NELMDL= -5     # of ELM steps 
   EDIFF  = 0.1E-04   stopping-criterion for ELM
   LREAL  =      F    real-space projection
   NLSPLINE    = F    spline interpolate recip. space projectors
   LCOMPAT=      F    compatible to vasp.4.4
   GGA_COMPAT  = T    GGA compatible to vasp.4.4-vasp.4.6
   LMAXPAW     = -100 max onsite density
   LMAXMIX     =    2 max onsite mixed and CHGCAR
   VOSKOWN=      0    Vosko Wilk Nusair interpolation
   ROPT   =    0.00000
 Ionic relaxation
   EDIFFG = -.1E+00   stopping-criterion for IOM
   NSW    =    101    number of steps for IOM
   NBLOCK =      1;   KBLOCK =    101    inner block; outer block 
   IBRION =      2    ionic relax: 0-MD 1-quasi-New 2-CG
   NFREE  =      1    steps in history (QN), initial steepest desc. (CG)
   ISIF   =      2    stress and relaxation
   IWAVPR =     11    prediction:  0-non 1-charg 2-wave 3-comb
   ISYM   =      2    0-nonsym 1-usesym 2-fastsym
   LCORR  =      T    Harris-Foulkes like correction to forces

   POTIM  = 0.5000    time-step for ionic-motion
   TEIN   =    0.0    initial temperature
   TEBEG  =    0.0;   TEEND  =   0.0 temperature during run
   SMASS  =  -3.00    Nose mass-parameter (am)
   estimated Nose-frequenzy (Omega)   =  0.10E-29 period in steps =****** mass=  -0.112E-25a.u.
   SCALEE = 1.0000    scale energy and forces
   NPACO  =    256;   APACO  = 16.0  distance and # of slots for P.C.
   PSTRESS=    0.0 pullay stress

  Mass of Ions in am
   POMASS =  63.55
  Ionic Valenz
   ZVAL   =  11.00
  Atomic Wigner-Seitz radii
   RWIGS  =  -1.00
  virtual crystal weights 
   VCA    =   1.00
   NELECT =     352.0000    total number of electrons
   NUPDOWN=      -1.0000    fix difference up-down

 DOS related values:
   EMIN   =  10.00;   EMAX   =-10.00  energy-range for DOS
   EFERMI =   0.00
   ISMEAR =     0;   SIGMA  =   0.00  broadening in eV -4-tet -1-fermi 0-gaus

 Electronic relaxation 2 (details)
   IALGO  =     38    algorithm
   LDIAG  =      T    sub-space diagonalisation (order eigenvalues)
   LSUBROT=      F    optimize rotation matrix (better conditioning)
   TURBO    =      0    0=normal 1=particle mesh
   IRESTART =      0    0=no restart 2=restart with 2 vectors
   NREBOOT  =      0    no. of reboots
   NMIN     =      0    reboot dimension
   EREF     =   0.00    reference energy to select bands
   IMIX   =      4    mixing-type and parameters
     AMIX     =   0.40;   BMIX     =  1.00
     AMIX_MAG =   1.60;   BMIX_MAG =  1.00
     AMIN     =   0.10
     WC   =   100.;   INIMIX=   1;  MIXPRE=   1;  MAXMIX= -45

 Intra band minimization:
   WEIMIN = 0.0010     energy-eigenvalue tresh-hold
   EBREAK =  0.96E-08  absolut break condition
   DEPER  =   0.30     relativ break condition  

   TIME   =   0.40     timestep for ELM

  volume/ion in A,a.u.               =     337.11      2274.91
  Fermi-wavevector in a.u.,A,eV,Ry     =   0.523138  0.988588  3.723555  0.273674
  Thomas-Fermi vector in A             =   1.542276
 
 Write flags
   LWAVE        =      F    write WAVECAR
   LDOWNSAMPLE  =      F    k-point downsampling of WAVECAR
   LCHARG       =      F    write CHGCAR
   LVTOT        =      F    write LOCPOT, total local potential
   LVHAR        =      F    write LOCPOT, Hartree potential only
   LELF         =      F    write electronic localiz. function (ELF)
   LORBIT       =     11    0 simple, 1 ext, 2 COOP (PROOUT), +10 PAW based schemes


 Dipole corrections
   LMONO  =      F    monopole corrections only (constant potential shift)
   LDIPOL =      F    correct potential (dipole corrections)
   IDIPOL =      0    1-x, 2-y, 3-z, 4-all directions 
   EPSILON=  1.0000000 bulk dielectric constant

 Exchange correlation treatment:
   GGA     =    PE    GGA type
   LEXCH   =     8    internal setting for exchange type
   VOSKOWN=      0    Vosko Wilk Nusair interpolation
   LHFCALC =     F    Hartree Fock is set to
   LHFONE  =     F    Hartree Fock one center treatment
   AEXX    =    0.0000 exact exchange contribution

 Linear response parameters
   LEPSILON=     F    determine dielectric tensor
   LRPA    =     F    only Hartree local field effects (RPA)
   LNABLA  =     F    use nabla operator in PAW spheres
   LVEL    =     F    velocity operator in full k-point grid
   LINTERFAST=   F  fast interpolation
   KINTER  =     0    interpolate to denser k-point grid
   CSHIFT  =0.1000    complex shift for real part using Kramers Kronig
   OMEGAMAX=  -1.0    maximum frequency
   DEG_THRESHOLD= 0.2000000E-02 threshold for treating states as degnerate
   RTIME   =   -0.100 relaxation time in fs
  (WPLASMAI=    0.000 imaginary part of plasma frequency in eV, 0.658/RTIME)
   DFIELD  = 0.0000000 0.0000000 0.0000000 field for delta impulse in time
 
 Orbital magnetization related:
   ORBITALMAG=     F  switch on orbital magnetization
   LCHIMAG   =     F  perturbation theory with respect to B field
   DQ        =  0.001000  dq finite difference perturbation B field
   LLRAUG    =     F  two centre corrections for induced B field



--------------------------------------------------------------------------------------------------------


 conjugate gradient relaxation of ions
 charge density and potential will be updated during run
 spin polarized calculation
 Variant of blocked Davidson
 Davidson routine will perform the subspace rotation
 perform sub-space diagonalisation
    after iterative eigenvector-optimisation
 modified Broyden-mixing scheme, WC =      100.0
 initial mixing is a Kerker type mixing with AMIX =  0.4000 and BMIX =      1.0000
 Hartree-type preconditioning will be used
 using additional bands           84
 reciprocal scheme for non local part
 use partial core corrections
 calculate Harris-corrections to forces 
   (improved forces if not selfconsistent)
 use gradient corrections 
 use of overlap-Matrix (Vanderbilt PP)
 Gauss-broadening in eV      SIGMA  =   0.00


--------------------------------------------------------------------------------------------------------


  energy-cutoff  :      295.45
  volume of cell :    10787.43
      direct lattice vectors                 reciprocal lattice vectors
    22.095608000  0.000000000  0.000000000     0.045257863  0.000000000  0.000000000
     0.000000000 22.095608000  0.000000000     0.000000000  0.045257863  0.000000000
     0.000000000  0.000000000 22.095608000     0.000000000  0.000000000  0.045257863

  length of vectors
    22.095608000 22.095608000 22.095608000     0.045257863  0.045257863  0.045257863


 
 k-points in units of 2pi/SCALE and weight: Gamma-point only                        
   0.00000000  0.00000000  0.00000000       1.000
 
 k-points in reciprocal lattice and weights: Gamma-point only                        
   0.00000000  0.00000000  0.00000000       1.000
 
 position of ions in fractional coordinates (direct lattice) 
   0.44137859  0.67793736  0.57667823
   0.43956900  0.47175221  0.65405013
   0.59177762  0.35990893  0.56783284
   0.42926441  0.38198711  0.58482575
   0.55279813  0.64592429  0.43864385
   0.62119211  0.45584034  0.62694637
   0.58329094  0.35900358  0.45972388
   0.50414731  0.52619894  0.47487298
   0.38649048  0.42044838  0.37210760
   0.57305958  0.46036703  0.41863666
   0.51044736  0.42222728  0.51622687
   0.47838667  0.48324076  0.36490680
   0.44543690  0.57535840  0.61465159
   0.52928225  0.50795574  0.58852394
   0.41794158  0.59269259  0.50875823
   0.55788372  0.55963903  0.37279522
   0.40398492  0.39849434  0.47980917
   0.39545655  0.50516526  0.44253854
   0.62561888  0.55907433  0.57901795
   0.61424004  0.46017897  0.52041525
   0.52727548  0.61706215  0.54427536
   0.48772944  0.38289884  0.41110855
   0.62626504  0.65583454  0.52220549
   0.43813245  0.36878469  0.69150340
   0.45932902  0.68658021  0.47001888
   0.42218300  0.48841963  0.54778373
   0.45346184  0.59717199  0.40152613
   0.47794594  0.57038286  0.29787681
   0.48763137  0.31920037  0.50793347
   0.61042163  0.55862901  0.47097056
   0.52423627  0.40388135  0.63704685
   0.38374152  0.52775949  0.33578890
 
 position of ions in cartesian coordinates  (Angst):
   9.75252830 14.97943816 12.74205611
   9.71254431 10.42365191 14.45163528
  13.07568631  7.95240663 12.54661184
   9.48485813  8.44023744 12.92208052
  12.21441078 14.27208991  9.69210256
  13.72561736 10.07206946 13.85276123
  12.88816796  7.93240237 10.15787864
  11.13944134 11.62668551 10.49260722
   8.53974214  9.29006259  8.22194366
  12.66209984 10.17208943  9.25003153
  11.27864477  9.32936847 11.40634656
  10.57024433 10.67749840  8.06283761
   9.84219913 12.71289367 13.58110059
  11.69481312 11.22359091 13.00379428
   9.23467332 13.09590313 11.24132242
  12.32677999 12.36556463  8.23713705
   8.92629243  8.80497473 10.60167534
   8.73785291 11.16193356  9.77815810
  13.82342953 12.35308724 12.79375365
  13.57200714 10.16793413 11.49889136
  11.65047231 13.63436338 12.02609500
  10.77667852  8.46038267  9.08369337
  13.83770683 14.49106291 11.53844780
   9.68080287  8.14852195 15.27918806
  10.14915397 15.17040718 10.38535293
   9.32839007 10.79192868 12.10361457
  10.01951506 13.19487820  8.87196397
  10.56050614 12.60295608  6.58176923
  10.77451160  7.05292625 11.22309884
  13.48763705 12.34324762 10.40638087
  11.58331912  8.92400399 14.07593748
   8.47900220 11.66116681  7.41945991
 


--------------------------------------------------------------------------------------------------------


 use parallel FFT for orbitals z direction half grid
 k-point  1 :   0.0000 0.0000 0.0000  plane waves:   62145

 maximum and minimum number of plane-waves per node :      5652     5646

 maximum number of plane-waves:     62145
 maximum index in each direction: 
   IXMAX=   30   IYMAX=   30   IZMAX=   30
   IXMIN=  -30   IYMIN=  -30   IZMIN=    0


 parallel 3D FFT for wavefunctions:
    minimum data exchange during FFTs selected (reduces bandwidth)
 parallel 3D FFT for charge:
    minimum data exchange during FFTs selected (reduces bandwidth)


 total amount of memory used by VASP MPI-rank0    73480. kBytes
=======================================================================

   base      :      30000. kBytes
   nonl-proj :       3707. kBytes
   fftplans  :       7872. kBytes
   grid      :      20041. kBytes
   one-center:         46. kBytes
   wavefun   :      11814. kBytes
 
     INWAV:  cpu time    0.0000: real time    0.0004
 Broyden mixing: mesh for mixing (old mesh)
   NGX = 61   NGY = 61   NGZ = 61
  (NGX  =192   NGY  =192   NGZ  =192)
  gives a total of 226981 points

 initial charge density was supplied:
 charge density of overlapping atoms calculated
 number of electron     352.0000000 magnetization      96.0000000
 keeping initial charge density in first step


--------------------------------------------------------------------------------------------------------


 Maximum index for augmentation-charges          211 (set IRDMAX)


--------------------------------------------------------------------------------------------------------


 First call to EWALD:  gamma=   0.080
 Maximum number of real-space cells 3x 3x 3
 Maximum number of reciprocal cells 3x 3x 3

    FEWALD:  cpu time    0.0000: real time    0.0015


--------------------------------------- Iteration      1(   1)  ---------------------------------------


    POTLOK:  cpu time    0.3440: real time    0.3496
    SETDIJ:  cpu time    0.0080: real time    0.0076
     EDDAV:  cpu time    5.5320: real time    5.5365
       DOS:  cpu time    0.0000: real time    0.0004
    --------------------------------------------
      LOOP:  cpu time    5.8840: real time    5.8941

 eigenvalue-minimisations  :  1056
 total energy-change (2. order) : 0.2287303E+04  (-0.7778694E+04)
 number of electron     352.0000000 magnetization      96.0000000
 augmentation part      352.0000000 magnetization      96.0000000

 Free energy of the ion-electron system (eV)
  ---------------------------------------------------
  alpha Z        PSCENC =        69.42155073
  Ewald energy   TEWEN  =     98152.08205792
  -Hartree energ DENC   =   -138763.32045563
  -exchange      EXHF   =         0.00000000
  -V(xc)+E(xc)   XCENC  =      1475.25422645
  PAW double counting   =     39270.94975369   -42652.66805942
  entropy T*S    EENTRO =        -0.00000000
  eigenvalues    EBANDS =       225.64487155
  atomic energy  EATOM  =     44509.93870905
  Solvation  Ediel_sol  =         0.00000000
  ---------------------------------------------------
  free energy    TOTEN  =      2287.30265434 eV

  energy without entropy =     2287.30265434  energy(sigma->0) =     2287.30265434


--------------------------------------------------------------------------------------------------------




--------------------------------------- Iteration      1(   2)  ---------------------------------------


     EDDAV:  cpu time    5.7240: real time    5.7392
       DOS:  cpu time    0.0000: real time    0.0003
    --------------------------------------------
      LOOP:  cpu time    5.7240: real time    5.7395

 eigenvalue-minimisations  :  1104
 total energy-change (2. order) :-0.2179298E+04  (-0.1965126E+04)
 number of electron     352.0000000 magnetization      96.0000000
 augmentation part      352.0000000 magnetization      96.0000000

 Free energy of the ion-electron system (eV)
  ---------------------------------------------------
  alpha Z        PSCENC =        69.42155073
  Ewald energy   TEWEN  =     98152.08205792
  -Hartree energ DENC   =   -138763.32045563
  -exchange      EXHF   =         0.00000000
  -V(xc)+E(xc)   XCENC  =      1475.25422645
  PAW double counting   =     39270.94975369   -42652.66805942
  entropy T*S    EENTRO =         0.00000000
  eigenvalues    EBANDS =     -1953.65292048
  atomic energy  EATOM  =     44509.93870905
  Solvation  Ediel_sol  =         0.00000000
  ---------------------------------------------------
  free energy    TOTEN  =       108.00486231 eV

  energy without entropy =      108.00486231  energy(sigma->0) =      108.00486231


--------------------------------------------------------------------------------------------------------




--------------------------------------- Iteration      1(   3)  ---------------------------------------


     EDDAV:  cpu time    6.4280: real time    6.4282
       DOS:  cpu time    0.0000: real time    0.0003
    --------------------------------------------
      LOOP:  cpu time    6.4280: real time    6.4285

 eigenvalue-minimisations  :  1280
 total energy-change (2. order) :-0.1626415E+03  (-0.1538232E+03)
 number of electron     352.0000000 magnetization      96.0000000
 augmentation part      352.0000000 magnetization      96.0000000

 Free energy of the ion-electron system (eV)
  ---------------------------------------------------
  alpha Z        PSCENC =        69.42155073
  Ewald energy   TEWEN  =     98152.08205792
  -Hartree energ DENC   =   -138763.32045563
  -exchange      EXHF   =         0.00000000
  -V(xc)+E(xc)   XCENC  =      1475.25422645
  PAW double counting   =     39270.94975369   -42652.66805942
  entropy T*S    EENTRO =         0.00000000
  eigenvalues    EBANDS =     -2116.29439502
  atomic energy  EATOM  =     44509.93870905
  Solvation  Ediel_sol  =         0.00000000
  ---------------------------------------------------
  free energy    TOTEN  =       -54.63661223 eV

  energy without entropy =      -54.63661223  energy(sigma->0) =      -54.63661223


--------------------------------------------------------------------------------------------------------




--------------------------------------- Iteration      1(   4)  ---------------------------------------


     EDDAV:  cpu time    6.4920: real time    6.5076
       DOS:  cpu time    0.0040: real time    0.0003
    --------------------------------------------
      LOOP:  cpu time    6.4960: real time    6.5079

 eigenvalue-minimisations  :  1296
 total energy-change (2. order) :-0.9619633E+01  (-0.9230425E+01)
 number of electron     352.0000000 magnetization      96.0000000
 augmentation part      352.0000000 magnetization      96.0000000

 Free energy of the ion-electron system (eV)
  ---------------------------------------------------
  alpha Z        PSCENC =        69.42155073
  Ewald energy   TEWEN  =     98152.08205792
  -Hartree energ DENC   =   -138763.32045563
  -exchange      EXHF   =         0.00000000
  -V(xc)+E(xc)   XCENC  =      1475.25422645
  PAW double counting   =     39270.94975369   -42652.66805942
  entropy T*S    EENTRO =         0.00000000
  eigenvalues    EBANDS =     -2125.91402758
  atomic energy  EATOM  =     44509.93870905
  Solvation  Ediel_sol  =         0.00000000
  ---------------------------------------------------
  free energy    TOTEN  =       -64.25624479 eV

  energy without entropy =      -64.25624479  energy(sigma->0) =      -64.25624479


--------------------------------------------------------------------------------------------------------




--------------------------------------- Iteration      1(   5)  ---------------------------------------


     EDDAV:  cpu time    6.4280: real time    6.4351
       DOS:  cpu time    0.0040: real time    0.0008
    CHARGE:  cpu time    0.1440: real time    0.1456
    MIXING:  cpu time    0.0080: real time    0.0094
    --------------------------------------------
      LOOP:  cpu time    6.5840: real time    6.5910

 eigenvalue-minimisations  :  1280
 total energy-change (2. order) :-0.3286640E+00  (-0.3272782E+00)
 number of electron     351.9999937 magnetization      86.9027334
 augmentation part      207.3604248 magnetization      83.0669378

 Broyden mixing:
  rms(total) = 0.10050E+02    rms(broyden)= 0.10048E+02
  rms(prec ) = 0.10171E+02
  weight for this iteration     100.00

 Free energy of the ion-electron system (eV)
  ---------------------------------------------------
  alpha Z        PSCENC =        69.42155073
  Ewald energy   TEWEN  =     98152.08205792
  -Hartree energ DENC   =   -138763.32045563
  -exchange      EXHF   =         0.00000000
  -V(xc)+E(xc)   XCENC  =      1475.25422645
  PAW double counting   =     39270.94975369   -42652.66805942
  entropy T*S    EENTRO =         0.00000000
  eigenvalues    EBANDS =     -2126.24269155
  atomic energy  EATOM  =     44509.93870905
  Solvation  Ediel_sol  =         0.00000000
  ---------------------------------------------------
  free energy    TOTEN  =       -64.58490877 eV

  energy without entropy =      -64.58490877  energy(sigma->0) =      -64.58490877


--------------------------------------------------------------------------------------------------------




--------------------------------------- Iteration      1(   6)  ---------------------------------------


    POTLOK:  cpu time    0.3280: real time    0.3369
    SETDIJ:  cpu time    0.0080: real time    0.0077
     EDDAV:  cpu time    5.7800: real time    5.7819
       DOS:  cpu time    0.0000: real time    0.0007
    CHARGE:  cpu time    0.1480: real time    0.1465
    MIXING:  cpu time    0.0080: real time    0.0091
    --------------------------------------------
      LOOP:  cpu time    6.2720: real time    6.2828

 eigenvalue-minimisations  :  1116
 total energy-change (2. order) : 0.2208054E+03  (-0.1329345E+03)
 number of electron     351.9999820 magnetization      80.4676613
 augmentation part      242.7881719 magnetization      52.9767621

 Broyden mixing:
  rms(total) = 0.49690E+01    rms(broyden)= 0.49659E+01
  rms(prec ) = 0.51637E+01
  weight for this iteration     100.00

 eigenvalues of (default mixing * dielectric matrix)
  average eigenvalue GAMMA=   0.9475
  0.9475

 Free energy of the ion-electron system (eV)
  ---------------------------------------------------
  alpha Z        PSCENC =        69.42155073
  Ewald energy   TEWEN  =     98152.08205792
  -Hartree energ DENC   =   -137840.94836255
  -exchange      EXHF   =         0.00000000
  -V(xc)+E(xc)   XCENC  =      1591.58557852
  PAW double counting   =     39375.83434953   -42585.83240704
  entropy T*S    EENTRO =         0.00000000
  eigenvalues    EBANDS =     -3115.86097323
  atomic energy  EATOM  =     44509.93870905
  Solvation  Ediel_sol  =         0.00000000
  ---------------------------------------------------
  free energy    TOTEN  =       156.22050292 eV

  energy without entropy =      156.22050292  energy(sigma->0) =      156.22050292


--------------------------------------------------------------------------------------------------------




--------------------------------------- Iteration      1(   7)  ---------------------------------------


    POTLOK:  cpu time    0.3280: real time    0.3340
    SETDIJ:  cpu time    0.0040: real time    0.0075
     EDDAV:  cpu time    6.2080: real time    6.2062
       DOS:  cpu time    0.0000: real time    0.0007
    CHARGE:  cpu time    0.1480: real time    0.1494
    MIXING:  cpu time    0.0120: real time    0.0097
    --------------------------------------------
      LOOP:  cpu time    6.7000: real time    6.7075

 eigenvalue-minimisations  :  1220
 total energy-change (2. order) :-0.5203208E+00  (-0.5271070E+02)
 number of electron     351.9999919 magnetization      72.7505833
 augmentation part      227.9276622 magnetization      44.5193389

 Broyden mixing:
  rms(total) = 0.24661E+01    rms(broyden)= 0.24650E+01
  rms(prec ) = 0.25043E+01
  weight for this iteration     100.00

 eigenvalues of (default mixing * dielectric matrix)
  average eigenvalue GAMMA=   0.8795
  1.0615  0.6976

 Free energy of the ion-electron system (eV)
  ---------------------------------------------------
  alpha Z        PSCENC =        69.42155073
  Ewald energy   TEWEN  =     98152.08205792
  -Hartree energ DENC   =   -138617.01664310
  -exchange      EXHF   =         0.00000000
  -V(xc)+E(xc)   XCENC  =      1609.16279114
  PAW double counting   =     40585.53114978   -44072.63236945
  entropy T*S    EENTRO =         0.00000000
  eigenvalues    EBANDS =     -2080.78706393
  atomic energy  EATOM  =     44509.93870905
  Solvation  Ediel_sol  =         0.00000000
  ---------------------------------------------------
  free energy    TOTEN  =       155.70018213 eV

  energy without entropy =      155.70018213  energy(sigma->0) =      155.70018213


--------------------------------------------------------------------------------------------------------




--------------------------------------- Iteration      1(   8)  ---------------------------------------


    POTLOK:  cpu time    0.3240: real time    0.3334
    SETDIJ:  cpu time    0.0080: real time    0.0075
     EDDAV:  cpu time    6.8400: real time    6.8413
       DOS:  cpu time    0.0000: real time    0.0006
    CHARGE:  cpu time    0.1480: real time    0.1455
    MIXING:  cpu time    0.0080: real time    0.0098
    --------------------------------------------
      LOOP:  cpu time    7.3280: real time    7.3382

 eigenvalue-minimisations  :  1384
 total energy-change (2. order) : 0.1086120E+02  (-0.7999507E+01)
 number of electron     351.9999801 magnetization      68.2337959
 augmentation part      224.8242367 magnetization      37.8001908

 Broyden mixing:
  rms(total) = 0.22401E+01    rms(broyden)= 0.22392E+01
  rms(prec ) = 0.23140E+01
  weight for this iteration     100.00

 eigenvalues of (default mixing * dielectric matrix)
  average eigenvalue GAMMA=   0.7951
  1.1206  0.7003  0.5643

 Free energy of the ion-electron system (eV)
  ---------------------------------------------------
  alpha Z        PSCENC =        69.42155073
  Ewald energy   TEWEN  =     98152.08205792
  -Hartree energ DENC   =   -138778.36538027
  -exchange      EXHF   =         0.00000000
  -V(xc)+E(xc)   XCENC  =      1619.30795399
  PAW double counting   =     41309.74129438   -44816.85386365
  entropy T*S    EENTRO =         0.00000000
  eigenvalues    EBANDS =     -1898.71094165
  atomic energy  EATOM  =     44509.93870905
  Solvation  Ediel_sol  =         0.00000000
  ---------------------------------------------------
  free energy    TOTEN  =       166.56138050 eV

  energy without entropy =      166.56138050  energy(sigma->0) =      166.56138050


--------------------------------------------------------------------------------------------------------




--------------------------------------- Iteration      1(   9)  ---------------------------------------


    POTLOK:  cpu time    0.3240: real time    0.3382
    SETDIJ:  cpu time    0.0080: real time    0.0076
     EDDAV:  cpu time    6.3800: real time    6.3805
       DOS:  cpu time    0.0000: real time    0.0007
    CHARGE:  cpu time    0.1480: real time    0.1463
    MIXING:  cpu time    0.0120: real time    0.0101
    --------------------------------------------
      LOOP:  cpu time    6.8720: real time    6.8834

 eigenvalue-minimisations  :  1264
 total energy-change (2. order) :-0.1440269E+02  (-0.2802767E+01)
 number of electron     351.9999900 magnetization      56.8764819
 augmentation part      225.8389521 magnetization      28.4391529

 Broyden mixing:
  rms(total) = 0.16570E+01    rms(broyden)= 0.16564E+01
  rms(prec ) = 0.16843E+01
  weight for this iteration     100.00

 eigenvalues of (default mixing * dielectric matrix)
  average eigenvalue GAMMA=   0.9261
  1.5234  0.9756  0.7917  0.4136

 Free energy of the ion-electron system (eV)
  ---------------------------------------------------
  alpha Z        PSCENC =        69.42155073
  Ewald energy   TEWEN  =     98152.08205792
  -Hartree energ DENC   =   -138730.06285385
  -exchange      EXHF   =         0.00000000
  -V(xc)+E(xc)   XCENC  =      1605.50727209
  PAW double counting   =     41474.60001381   -44964.97284758
  entropy T*S    EENTRO =         0.00000000
  eigenvalues    EBANDS =     -1964.35520853
  atomic energy  EATOM  =     44509.93870905
  Solvation  Ediel_sol  =         0.00000000
  ---------------------------------------------------
  free energy    TOTEN  =       152.15869364 eV

  energy without entropy =      152.15869364  energy(sigma->0) =      152.15869364


--------------------------------------------------------------------------------------------------------




--------------------------------------- Iteration      1(  10)  ---------------------------------------


    POTLOK:  cpu time    0.3280: real time    0.3339
    SETDIJ:  cpu time    0.0080: real time    0.0075
     EDDAV:  cpu time    7.5480: real time    7.5473
       DOS:  cpu time    0.0000: real time    0.0007
    CHARGE:  cpu time    0.1440: real time    0.1463
    MIXING:  cpu time    0.0120: real time    0.0110
    --------------------------------------------
      LOOP:  cpu time    8.0400: real time    8.0469

 eigenvalue-minimisations  :  1556
 total energy-change (2. order) :-0.5531627E+02  (-0.2828744E+01)
 number of electron     351.9999894 magnetization      46.9668856
 augmentation part      227.0394581 magnetization      21.7747032

 Broyden mixing:
  rms(total) = 0.13093E+01    rms(broyden)= 0.13088E+01
  rms(prec ) = 0.13425E+01
  weight for this iteration     100.00

 eigenvalues of (default mixing * dielectric matrix)
  average eigenvalue GAMMA=   1.0546
  2.4152  1.1934  0.6839  0.5561  0.4245

 Free energy of the ion-electron system (eV)
  ---------------------------------------------------
  alpha Z        PSCENC =        69.42155073
  Ewald energy   TEWEN  =     98152.08205792
  -Hartree energ DENC   =   -138723.85390294
  -exchange      EXHF   =         0.00000000
  -V(xc)+E(xc)   XCENC  =      1560.18369161
  PAW double counting   =     41766.72503438   -45224.86000867
  entropy T*S    EENTRO =         0.00000000
  eigenvalues    EBANDS =     -2012.79471272
  atomic energy  EATOM  =     44509.93870905
  Solvation  Ediel_sol  =         0.00000000
  ---------------------------------------------------
  free energy    TOTEN  =        96.84241937 eV

  energy without entropy =       96.84241937  energy(sigma->0) =       96.84241937


--------------------------------------------------------------------------------------------------------




--------------------------------------- Iteration      1(  11)  ---------------------------------------


    POTLOK:  cpu time    0.3360: real time    0.3355
    SETDIJ:  cpu time    0.0080: real time    0.0077
     EDDAV:  cpu time    6.7280: real time    6.7272
       DOS:  cpu time    0.0000: real time    0.0007
    CHARGE:  cpu time    0.1440: real time    0.1454
    MIXING:  cpu time    0.0120: real time    0.0114
    --------------------------------------------
      LOOP:  cpu time    7.2280: real time    7.2280

 eigenvalue-minimisations  :  1352
 total energy-change (2. order) :-0.3462532E+02  (-0.2509350E+01)
 number of electron     351.9999884 magnetization      40.9682706
 augmentation part      227.5103724 magnetization      19.4620480

 Broyden mixing:
  rms(total) = 0.97746E+00    rms(broyden)= 0.97696E+00
  rms(prec ) = 0.99573E+00
  weight for this iteration     100.00

 eigenvalues of (default mixing * dielectric matrix)
  average eigenvalue GAMMA=   1.0450
  2.7657  1.2933  0.6213  0.6213  0.5661  0.4025

 Free energy of the ion-electron system (eV)
  ---------------------------------------------------
  alpha Z        PSCENC =        69.42155073
  Ewald energy   TEWEN  =     98152.08205792
  -Hartree energ DENC   =   -138733.40209917
  -exchange      EXHF   =         0.00000000
  -V(xc)+E(xc)   XCENC  =      1534.43802815
  PAW double counting   =     41922.57675704   -45362.47295524
  entropy T*S    EENTRO =         0.00000000
  eigenvalues    EBANDS =     -2030.36495094
  atomic energy  EATOM  =     44509.93870905
  Solvation  Ediel_sol  =         0.00000000
  ---------------------------------------------------
  free energy    TOTEN  =        62.21709753 eV

  energy without entropy =       62.21709753  energy(sigma->0) =       62.21709753


--------------------------------------------------------------------------------------------------------




--------------------------------------- Iteration      1(  12)  ---------------------------------------


    POTLOK:  cpu time    0.3240: real time    0.3372
    SETDIJ:  cpu time    0.0080: real time    0.0076
     EDDAV:  cpu time    6.4520: real time    6.4505
       DOS:  cpu time    0.0000: real time    0.0006
    CHARGE:  cpu time    0.1440: real time    0.1464
    MIXING:  cpu time    0.0120: real time    0.0118
    --------------------------------------------
      LOOP:  cpu time    6.9400: real time    6.9540

 eigenvalue-minimisations  :  1280
 total energy-change (2. order) :-0.2272296E+02  (-0.1630889E+01)
 number of electron     351.9999907 magnetization      31.4995686
 augmentation part      226.7882687 magnetization      13.2506722

 Broyden mixing:
  rms(total) = 0.78000E+00    rms(broyden)= 0.77961E+00
  rms(prec ) = 0.79362E+00
  weight for this iteration     100.00

 eigenvalues of (default mixing * dielectric matrix)
  average eigenvalue GAMMA=   1.1783
  3.6648  1.4199  0.8178  0.8178  0.6809  0.4234  0.4234

 Free energy of the ion-electron system (eV)
  ---------------------------------------------------
  alpha Z        PSCENC =        69.42155073
  Ewald energy   TEWEN  =     98152.08205792
  -Hartree energ DENC   =   -138767.65139366
  -exchange      EXHF   =         0.00000000
  -V(xc)+E(xc)   XCENC  =      1519.08191609
  PAW double counting   =     41928.30000759   -45370.00338128
  entropy T*S    EENTRO =         0.00000000
  eigenvalues    EBANDS =     -2001.67533044
  atomic energy  EATOM  =     44509.93870905
  Solvation  Ediel_sol  =         0.00000000
  ---------------------------------------------------
  free energy    TOTEN  =        39.49413599 eV

  energy without entropy =       39.49413599  energy(sigma->0) =       39.49413599


--------------------------------------------------------------------------------------------------------




--------------------------------------- Iteration      1(  13)  ---------------------------------------


    POTLOK:  cpu time    0.3280: real time    0.3361
    SETDIJ:  cpu time    0.0080: real time    0.0076
     EDDAV:  cpu time    6.8360: real time    6.8364
       DOS:  cpu time    0.0000: real time    0.0007
    CHARGE:  cpu time    0.1480: real time    0.1465
    MIXING:  cpu time    0.0080: real time    0.0119
    --------------------------------------------
      LOOP:  cpu time    7.3320: real time    7.3390

 eigenvalue-minimisations  :  1376
 total energy-change (2. order) :-0.3807095E+02  (-0.2902291E+01)
 number of electron     351.9999885 magnetization      22.3505631
 augmentation part      225.3023829 magnetization       7.7766860

 Broyden mixing:
  rms(total) = 0.64638E+00    rms(broyden)= 0.64574E+00
  rms(prec ) = 0.66518E+00
  weight for this iteration     100.00

 eigenvalues of (default mixing * dielectric matrix)
  average eigenvalue GAMMA=   1.2894
  4.7807  1.7691  1.0052  0.7144  0.7144  0.3965  0.4672  0.4672

 Free energy of the ion-electron system (eV)
  ---------------------------------------------------
  alpha Z        PSCENC =        69.42155073
  Ewald energy   TEWEN  =     98152.08205792
  -Hartree energ DENC   =   -138813.89975134
  -exchange      EXHF   =         0.00000000
  -V(xc)+E(xc)   XCENC  =      1492.44546355
  PAW double counting   =     41921.89597913   -45366.62676532
  entropy T*S    EENTRO =         0.00000000
  eigenvalues    EBANDS =     -1963.83406184
  atomic energy  EATOM  =     44509.93870905
  Solvation  Ediel_sol  =         0.00000000
  ---------------------------------------------------
  free energy    TOTEN  =         1.42318188 eV

  energy without entropy =        1.42318188  energy(sigma->0) =        1.42318188


--------------------------------------------------------------------------------------------------------




--------------------------------------- Iteration      1(  14)  ---------------------------------------


    POTLOK:  cpu time    0.3320: real time    0.3344
    SETDIJ:  cpu time    0.0080: real time    0.0075
     EDDAV:  cpu time    7.1960: real time    7.1985
       DOS:  cpu time    0.0040: real time    0.0007
    CHARGE:  cpu time    0.1440: real time    0.1455
    MIXING:  cpu time    0.0120: real time    0.0127
    --------------------------------------------
      LOOP:  cpu time    7.6920: real time    7.6993

 eigenvalue-minimisations  :  1464
 total energy-change (2. order) :-0.3595716E+02  (-0.3088906E+01)
 number of electron     351.9999901 magnetization      18.0125663
 augmentation part      224.5804181 magnetization       7.2929083

 Broyden mixing:
  rms(total) = 0.49561E+00    rms(broyden)= 0.49486E+00
  rms(prec ) = 0.51755E+00
  weight for this iteration     100.00

 eigenvalues of (default mixing * dielectric matrix)
  average eigenvalue GAMMA=   1.3262
  5.4216  2.1354  0.9962  0.7288  0.7288  0.6325  0.4985  0.3969  0.3969

 Free energy of the ion-electron system (eV)
  ---------------------------------------------------
  alpha Z        PSCENC =        69.42155073
  Ewald energy   TEWEN  =     98152.08205792
  -Hartree energ DENC   =   -138821.59488336
  -exchange      EXHF   =         0.00000000
  -V(xc)+E(xc)   XCENC  =      1465.58246941
  PAW double counting   =     41824.37041290   -45266.59751822
  entropy T*S    EENTRO =        -0.00000000
  eigenvalues    EBANDS =     -1967.73678132
  atomic energy  EATOM  =     44509.93870905
  Solvation  Ediel_sol  =         0.00000000
  ---------------------------------------------------
  free energy    TOTEN  =       -34.53398290 eV

  energy without entropy =      -34.53398290  energy(sigma->0) =      -34.53398290


--------------------------------------------------------------------------------------------------------




--------------------------------------- Iteration      1(  15)  ---------------------------------------


    POTLOK:  cpu time    0.3280: real time    0.3383
    SETDIJ:  cpu time    0.0040: real time    0.0075
     EDDAV:  cpu time    6.7600: real time    6.7588
       DOS:  cpu time    0.0000: real time    0.0008
    CHARGE:  cpu time    0.1520: real time    0.1513
    MIXING:  cpu time    0.0120: real time    0.0130
    --------------------------------------------
      LOOP:  cpu time    7.2560: real time    7.2697

 eigenvalue-minimisations  :  1352
 total energy-change (2. order) :-0.2054724E+02  (-0.1772579E+01)
 number of electron     351.9999904 magnetization      14.3294006
 augmentation part      224.8390263 magnetization       8.3409969

 Broyden mixing:
  rms(total) = 0.43048E+00    rms(broyden)= 0.42925E+00
  rms(prec ) = 0.44663E+00
  weight for this iteration     100.00

 eigenvalues of (default mixing * dielectric matrix)
  average eigenvalue GAMMA=   1.3209
  6.0293  2.2346  1.0526  0.7277  0.7277  0.6262  0.6262  0.4143  0.4143  0.3562

 Free energy of the ion-electron system (eV)
  ---------------------------------------------------
  alpha Z        PSCENC =        69.42155073
  Ewald energy   TEWEN  =     98152.08205792
  -Hartree energ DENC   =   -138783.12919382
  -exchange      EXHF   =         0.00000000
  -V(xc)+E(xc)   XCENC  =      1449.73948941
  PAW double counting   =     41690.24093382   -45124.79748315
  entropy T*S    EENTRO =         0.00000000
  eigenvalues    EBANDS =     -2018.57728924
  atomic energy  EATOM  =     44509.93870905
  Solvation  Ediel_sol  =         0.00000000
  ---------------------------------------------------
  free energy    TOTEN  =       -55.08122528 eV

  energy without entropy =      -55.08122528  energy(sigma->0) =      -55.08122528


--------------------------------------------------------------------------------------------------------




--------------------------------------- Iteration      1(  16)  ---------------------------------------


    POTLOK:  cpu time    0.3280: real time    0.3374
    SETDIJ:  cpu time    0.0080: real time    0.0075
     EDDAV:  cpu time    6.7080: real time    6.7103
       DOS:  cpu time    0.0000: real time    0.0007
    CHARGE:  cpu time    0.1480: real time    0.1468
    MIXING:  cpu time    0.0120: real time    0.0134
    --------------------------------------------
      LOOP:  cpu time    7.2040: real time    7.2162

 eigenvalue-minimisations  :  1344
 total energy-change (2. order) :-0.8382096E+01  (-0.6148074E+00)
 number of electron     351.9999894 magnetization      11.3348550
 augmentation part      225.0288581 magnetization       7.8767503

 Broyden mixing:
  rms(total) = 0.36340E+00    rms(broyden)= 0.36262E+00
  rms(prec ) = 0.38179E+00
  weight for this iteration     100.00

 eigenvalues of (default mixing * dielectric matrix)
  average eigenvalue GAMMA=   1.3082
  6.5410  2.2804  1.0768  0.7744  0.7744  0.6468  0.6468  0.4337  0.4337  0.4079
  0.3743

 Free energy of the ion-electron system (eV)
  ---------------------------------------------------
  alpha Z        PSCENC =        69.42155073
  Ewald energy   TEWEN  =     98152.08205792
  -Hartree energ DENC   =   -138773.31427950
  -exchange      EXHF   =         0.00000000
  -V(xc)+E(xc)   XCENC  =      1443.61291247
  PAW double counting   =     41656.54684357   -45088.54836574
  entropy T*S    EENTRO =         0.00000000
  eigenvalues    EBANDS =     -2033.20274984
  atomic energy  EATOM  =     44509.93870905
  Solvation  Ediel_sol  =         0.00000000
  ---------------------------------------------------
  free energy    TOTEN  =       -63.46332134 eV

  energy without entropy =      -63.46332134  energy(sigma->0) =      -63.46332134


--------------------------------------------------------------------------------------------------------




--------------------------------------- Iteration      1(  17)  ---------------------------------------


    POTLOK:  cpu time    0.3280: real time    0.3395
    SETDIJ:  cpu time    0.0040: real time    0.0074
     EDDAV:  cpu time    6.8760: real time    6.8737
       DOS:  cpu time    0.0000: real time    0.0006
    CHARGE:  cpu time    0.1440: real time    0.1446
    MIXING:  cpu time    0.0120: real time    0.0139
    --------------------------------------------
      LOOP:  cpu time    7.3640: real time    7.3797

 eigenvalue-minimisations  :  1384
 total energy-change (2. order) :-0.5434930E+01  (-0.2453146E+00)
 number of electron     351.9999906 magnetization       7.8288323
 augmentation part      225.1266437 magnetization       6.5142456

 Broyden mixing:
  rms(total) = 0.32402E+00    rms(broyden)= 0.32331E+00
  rms(prec ) = 0.33917E+00
  weight for this iteration     100.00

 eigenvalues of (default mixing * dielectric matrix)
  average eigenvalue GAMMA=   1.3259
  7.2539  2.2251  1.1544  0.9163  0.9163  0.6161  0.6161  0.6060  0.4514  0.4514
  0.3844  0.3191

 Free energy of the ion-electron system (eV)
  ---------------------------------------------------
  alpha Z        PSCENC =        69.42155073
  Ewald energy   TEWEN  =     98152.08205792
  -Hartree energ DENC   =   -138768.49837266
  -exchange      EXHF   =         0.00000000
  -V(xc)+E(xc)   XCENC  =      1439.35687130
  PAW double counting   =     41634.62336454   -45065.94434154
  entropy T*S    EENTRO =        -0.00000000
  eigenvalues    EBANDS =     -2039.87809022
  atomic energy  EATOM  =     44509.93870905
  Solvation  Ediel_sol  =         0.00000000
  ---------------------------------------------------
  free energy    TOTEN  =       -68.89825088 eV

  energy without entropy =      -68.89825088  energy(sigma->0) =      -68.89825088


--------------------------------------------------------------------------------------------------------




--------------------------------------- Iteration      1(  18)  ---------------------------------------


    POTLOK:  cpu time    0.3360: real time    0.3382
    SETDIJ:  cpu time    0.0080: real time    0.0077
     EDDAV:  cpu time    7.1640: real time    7.1643
       DOS:  cpu time    0.0000: real time    0.0006
    CHARGE:  cpu time    0.1440: real time    0.1449
    MIXING:  cpu time    0.0160: real time    0.0147
    --------------------------------------------
      LOOP:  cpu time    7.6680: real time    7.6704

 eigenvalue-minimisations  :  1456
 total energy-change (2. order) :-0.5059699E+01  (-0.1920254E+00)
 number of electron     351.9999903 magnetization       5.4271210
 augmentation part      225.1360968 magnetization       4.6829826

 Broyden mixing:
  rms(total) = 0.25027E+00    rms(broyden)= 0.25019E+00
  rms(prec ) = 0.26334E+00
  weight for this iteration     100.00

 eigenvalues of (default mixing * dielectric matrix)
  average eigenvalue GAMMA=   1.3942
  8.1294  2.3873  1.1993  1.1993  0.9030  0.9030  0.6607  0.6607  0.4815  0.4815
  0.4061  0.3560  0.3560

 Free energy of the ion-electron system (eV)
  ---------------------------------------------------
  alpha Z        PSCENC =        69.42155073
  Ewald energy   TEWEN  =     98152.08205792
  -Hartree energ DENC   =   -138765.63130286
  -exchange      EXHF   =         0.00000000
  -V(xc)+E(xc)   XCENC  =      1435.26216863
  PAW double counting   =     41614.29058311   -45046.28553107
  entropy T*S    EENTRO =         0.00000000
  eigenvalues    EBANDS =     -2043.03618582
  atomic energy  EATOM  =     44509.93870905
  Solvation  Ediel_sol  =         0.00000000
  ---------------------------------------------------
  free energy    TOTEN  =       -73.95795031 eV

  energy without entropy =      -73.95795031  energy(sigma->0) =      -73.95795031


--------------------------------------------------------------------------------------------------------




--------------------------------------- Iteration      1(  19)  ---------------------------------------


    POTLOK:  cpu time    0.3360: real time    0.3381
    SETDIJ:  cpu time    0.0080: real time    0.0076
     EDDAV:  cpu time    6.7240: real time    6.7232
       DOS:  cpu time    0.0000: real time    0.0007
    CHARGE:  cpu time    0.1520: real time    0.1508
    MIXING:  cpu time    0.0160: real time    0.0153
    --------------------------------------------
      LOOP:  cpu time    7.2360: real time    7.2357

 eigenvalue-minimisations  :  1344
 total energy-change (2. order) :-0.5972964E+01  (-0.1738637E+00)
 number of electron     351.9999904 magnetization       4.1174924
 augmentation part      225.2452903 magnetization       3.8335030

 Broyden mixing:
  rms(total) = 0.18724E+00    rms(broyden)= 0.18719E+00
  rms(prec ) = 0.19627E+00
  weight for this iteration     100.00

 eigenvalues of (default mixing * dielectric matrix)
  average eigenvalue GAMMA=   1.4194
  8.6262  2.7062  1.3793  1.3793  0.8604  0.8604  0.7270  0.7270  0.5319  0.5319
  0.4182  0.4182  0.3527  0.3527

 Free energy of the ion-electron system (eV)
  ---------------------------------------------------
  alpha Z        PSCENC =        69.42155073
  Ewald energy   TEWEN  =     98152.08205792
  -Hartree energ DENC   =   -138739.24793024
  -exchange      EXHF   =         0.00000000
  -V(xc)+E(xc)   XCENC  =      1429.77482271
  PAW double counting   =     41538.92085993   -44970.87777350
  entropy T*S    EENTRO =         0.00000000
  eigenvalues    EBANDS =     -2069.94321051
  atomic energy  EATOM  =     44509.93870905
  Solvation  Ediel_sol  =         0.00000000
  ---------------------------------------------------
  free energy    TOTEN  =       -79.93091390 eV

  energy without entropy =      -79.93091390  energy(sigma->0) =      -79.93091390


--------------------------------------------------------------------------------------------------------




--------------------------------------- Iteration      1(  20)  ---------------------------------------


    POTLOK:  cpu time    0.3240: real time    0.3354
    SETDIJ:  cpu time    0.0080: real time    0.0547
     EDDAV:  cpu time    6.3880: real time    6.3890
       DOS:  cpu time    0.0000: real time    0.0007
    CHARGE:  cpu time    0.1440: real time    0.1446
    MIXING:  cpu time    0.0160: real time    0.0158
    --------------------------------------------
      LOOP:  cpu time    6.8800: real time    6.9403

 eigenvalue-minimisations  :  1264
 total energy-change (2. order) :-0.4531554E+01  (-0.8921990E-01)
 number of electron     351.9999905 magnetization       2.5925464
 augmentation part      225.4258358 magnetization       2.5076691

 Broyden mixing:
  rms(total) = 0.12578E+00    rms(broyden)= 0.12574E+00
  rms(prec ) = 0.13211E+00
  weight for this iteration     100.00

 eigenvalues of (default mixing * dielectric matrix)
  average eigenvalue GAMMA=   1.4432
  9.1402  3.0817  1.2892  1.1148  1.1148  0.9550  0.9550  0.7061  0.7061  0.6049
  0.4403  0.4403  0.3878  0.3559  0.3559

 Free energy of the ion-electron system (eV)
  ---------------------------------------------------
  alpha Z        PSCENC =        69.42155073
  Ewald energy   TEWEN  =     98152.08205792
  -Hartree energ DENC   =   -138706.36694844
  -exchange      EXHF   =         0.00000000
  -V(xc)+E(xc)   XCENC  =      1425.16426701
  PAW double counting   =     41470.65564365   -44902.34226388
  entropy T*S    EENTRO =         0.00000000
  eigenvalues    EBANDS =     -2103.01548361
  atomic energy  EATOM  =     44509.93870905
  Solvation  Ediel_sol  =         0.00000000
  ---------------------------------------------------
  free energy    TOTEN  =       -84.46246756 eV

  energy without entropy =      -84.46246756  energy(sigma->0) =      -84.46246756


--------------------------------------------------------------------------------------------------------




--------------------------------------- Iteration      1(  21)  ---------------------------------------


    POTLOK:  cpu time    0.3280: real time    0.3390
    SETDIJ:  cpu time    0.0080: real time    0.0077
     EDDAV:  cpu time    6.6840: real time    6.6837
       DOS:  cpu time    0.0000: real time    0.0007
    CHARGE:  cpu time    0.1480: real time    0.1467
    MIXING:  cpu time    0.0160: real time    0.0166
    --------------------------------------------
      LOOP:  cpu time    7.1840: real time    7.1944

 eigenvalue-minimisations  :  1336
 total energy-change (2. order) :-0.2958082E+01  (-0.4163345E-01)
 number of electron     351.9999906 magnetization       2.0936395
 augmentation part      225.5152516 magnetization       2.0779288

 Broyden mixing:
  rms(total) = 0.94611E-01    rms(broyden)= 0.94590E-01
  rms(prec ) = 0.10047E+00
  weight for this iteration     100.00

 eigenvalues of (default mixing * dielectric matrix)
  average eigenvalue GAMMA=   1.4787
  9.3132  3.3985  1.6722  1.4527  1.4527  0.8542  0.8542  0.7285  0.6905  0.6905
  0.5876  0.4369  0.4369  0.3843  0.3533  0.3533

 Free energy of the ion-electron system (eV)
  ---------------------------------------------------
  alpha Z        PSCENC =        69.42155073
  Ewald energy   TEWEN  =     98152.08205792
  -Hartree energ DENC   =   -138687.68924385
  -exchange      EXHF   =         0.00000000
  -V(xc)+E(xc)   XCENC  =      1422.12313607
  PAW double counting   =     41457.35577851   -44890.02171276
  entropy T*S    EENTRO =         0.00000000
  eigenvalues    EBANDS =     -2120.63082482
  atomic energy  EATOM  =     44509.93870905
  Solvation  Ediel_sol  =         0.00000000
  ---------------------------------------------------
  free energy    TOTEN  =       -87.42054916 eV

  energy without entropy =      -87.42054916  energy(sigma->0) =      -87.42054916


--------------------------------------------------------------------------------------------------------




--------------------------------------- Iteration      1(  22)  ---------------------------------------


    POTLOK:  cpu time    0.3320: real time    0.3355
    SETDIJ:  cpu time    0.0080: real time    0.0075
     EDDAV:  cpu time    6.3920: real time    6.3936
       DOS:  cpu time    0.0000: real time    0.0006
    CHARGE:  cpu time    0.1480: real time    0.1465
    MIXING:  cpu time    0.0160: real time    0.0173
    --------------------------------------------
      LOOP:  cpu time    6.8960: real time    6.9010

 eigenvalue-minimisations  :  1264
 total energy-change (2. order) :-0.1664380E+01  (-0.1857804E-01)
 number of electron     351.9999906 magnetization       1.4047115
 augmentation part      225.4529170 magnetization       1.3489838

 Broyden mixing:
  rms(total) = 0.59937E-01    rms(broyden)= 0.59917E-01
  rms(prec ) = 0.65578E-01
  weight for this iteration     100.00

 eigenvalues of (default mixing * dielectric matrix)
  average eigenvalue GAMMA=   1.4977
  9.7498  3.8228  1.8481  1.2723  1.2723  1.1965  0.9223  0.9223  0.6855  0.6855
  0.6084  0.5246  0.4268  0.4268  0.3861  0.3556  0.3556

 Free energy of the ion-electron system (eV)
  ---------------------------------------------------
  alpha Z        PSCENC =        69.42155073
  Ewald energy   TEWEN  =     98152.08205792
  -Hartree energ DENC   =   -138675.89655472
  -exchange      EXHF   =         0.00000000
  -V(xc)+E(xc)   XCENC  =      1420.53607321
  PAW double counting   =     41466.09848036   -44900.58802649
  entropy T*S    EENTRO =         0.00000000
  eigenvalues    EBANDS =     -2130.67721913
  atomic energy  EATOM  =     44509.93870905
  Solvation  Ediel_sol  =         0.00000000
  ---------------------------------------------------
  free energy    TOTEN  =       -89.08492907 eV

  energy without entropy =      -89.08492907  energy(sigma->0) =      -89.08492907


--------------------------------------------------------------------------------------------------------




--------------------------------------- Iteration      1(  23)  ---------------------------------------


    POTLOK:  cpu time    0.3320: real time    0.3382
    SETDIJ:  cpu time    0.0080: real time    0.0074
     EDDAV:  cpu time    6.8320: real time    6.8307
       DOS:  cpu time    0.0000: real time    0.0005
    CHARGE:  cpu time    0.1480: real time    0.1482
    MIXING:  cpu time    0.0160: real time    0.0178
    --------------------------------------------
      LOOP:  cpu time    7.3360: real time    7.3429

 eigenvalue-minimisations  :  1376
 total energy-change (2. order) :-0.1152788E+01  (-0.7702822E-02)
 number of electron     351.9999905 magnetization       0.8040970
 augmentation part      225.4241695 magnetization       0.7726454

 Broyden mixing:
  rms(total) = 0.37987E-01    rms(broyden)= 0.37973E-01
  rms(prec ) = 0.42279E-01
  weight for this iteration     100.00

 eigenvalues of (default mixing * dielectric matrix)
  average eigenvalue GAMMA=   1.5365
 10.2386  4.2400  2.2990  1.3519  1.3519  1.1851  0.8695  0.8695  0.8197  0.6911
  0.6911  0.6283  0.4465  0.4388  0.4388  0.3880  0.3548  0.3548

 Free energy of the ion-electron system (eV)
  ---------------------------------------------------
  alpha Z        PSCENC =        69.42155073
  Ewald energy   TEWEN  =     98152.08205792
  -Hartree energ DENC   =   -138660.73121184
  -exchange      EXHF   =         0.00000000
  -V(xc)+E(xc)   XCENC  =      1419.36898850
  PAW double counting   =     41462.34420693   -44897.67781450
  entropy T*S    EENTRO =         0.00000000
  eigenvalues    EBANDS =     -2144.98420366
  atomic energy  EATOM  =     44509.93870905
  Solvation  Ediel_sol  =         0.00000000
  ---------------------------------------------------
  free energy    TOTEN  =       -90.23771688 eV

  energy without entropy =      -90.23771688  energy(sigma->0) =      -90.23771688


--------------------------------------------------------------------------------------------------------




--------------------------------------- Iteration      1(  24)  ---------------------------------------


    POTLOK:  cpu time    0.3280: real time    0.3416
    SETDIJ:  cpu time    0.0080: real time    0.0077
     EDDAV:  cpu time    6.2480: real time    6.2499
       DOS:  cpu time    0.0000: real time    0.0008
    CHARGE:  cpu time    0.1480: real time    0.1469
    MIXING:  cpu time    0.0200: real time    0.0188
    --------------------------------------------
      LOOP:  cpu time    6.7520: real time    6.7655

 eigenvalue-minimisations  :  1228
 total energy-change (2. order) :-0.6273001E+00  (-0.2336333E-02)
 number of electron     351.9999905 magnetization       0.4995688
 augmentation part      225.4096306 magnetization       0.4923723

 Broyden mixing:
  rms(total) = 0.25935E-01    rms(broyden)= 0.25925E-01
  rms(prec ) = 0.29270E-01
  weight for this iteration     100.00

 eigenvalues of (default mixing * dielectric matrix)
  average eigenvalue GAMMA=   1.5260
 10.4438  4.3422  2.4616  1.3902  1.3902  1.1271  1.1271  0.8696  0.8696  0.6719
  0.6719  0.6316  0.5759  0.4652  0.4309  0.4309  0.3845  0.3548  0.3548

 Free energy of the ion-electron system (eV)
  ---------------------------------------------------
  alpha Z        PSCENC =        69.42155073
  Ewald energy   TEWEN  =     98152.08205792
  -Hartree energ DENC   =   -138650.45561206
  -exchange      EXHF   =         0.00000000
  -V(xc)+E(xc)   XCENC  =      1418.70516304
  PAW double counting   =     41463.10627222   -44898.78645886
  entropy T*S    EENTRO =         0.00000000
  eigenvalues    EBANDS =     -2154.87669903
  atomic energy  EATOM  =     44509.93870905
  Solvation  Ediel_sol  =         0.00000000
  ---------------------------------------------------
  free energy    TOTEN  =       -90.86501700 eV

  energy without entropy =      -90.86501700  energy(sigma->0) =      -90.86501700


--------------------------------------------------------------------------------------------------------




--------------------------------------- Iteration      1(  25)  ---------------------------------------


    POTLOK:  cpu time    0.3240: real time    0.3392
    SETDIJ:  cpu time    0.0080: real time    0.0076
     EDDAV:  cpu time    6.1520: real time    6.1540
       DOS:  cpu time    0.0000: real time    0.0007
    CHARGE:  cpu time    0.1440: real time    0.1427
    MIXING:  cpu time    0.0200: real time    0.0198
    --------------------------------------------
      LOOP:  cpu time    6.6480: real time    6.6639

 eigenvalue-minimisations  :  1200
 total energy-change (2. order) :-0.2792729E+00  (-0.9309820E-03)
 number of electron     351.9999905 magnetization       0.2971817
 augmentation part      225.4115970 magnetization       0.2959850

 Broyden mixing:
  rms(total) = 0.15471E-01    rms(broyden)= 0.15466E-01
  rms(prec ) = 0.18334E-01
  weight for this iteration     100.00

 eigenvalues of (default mixing * dielectric matrix)
  average eigenvalue GAMMA=   1.5304
 10.5725  4.4712  2.6529  1.6068  1.2973  1.2973  1.1502  0.8732  0.8732  0.9077
  0.6904  0.6904  0.5897  0.5506  0.3547  0.3547  0.4389  0.4389  0.3951  0.4022

 Free energy of the ion-electron system (eV)
  ---------------------------------------------------
  alpha Z        PSCENC =        69.42155073
  Ewald energy   TEWEN  =     98152.08205792
  -Hartree energ DENC   =   -138645.11321225
  -exchange      EXHF   =         0.00000000
  -V(xc)+E(xc)   XCENC  =      1418.39081330
  PAW double counting   =     41467.79804678   -44903.43783515
  entropy T*S    EENTRO =         0.00000000
  eigenvalues    EBANDS =     -2160.22442029
  atomic energy  EATOM  =     44509.93870905
  Solvation  Ediel_sol  =         0.00000000
  ---------------------------------------------------
  free energy    TOTEN  =       -91.14428992 eV

  energy without entropy =      -91.14428992  energy(sigma->0) =      -91.14428992


--------------------------------------------------------------------------------------------------------




--------------------------------------- Iteration      1(  26)  ---------------------------------------


    POTLOK:  cpu time    0.3280: real time    0.3362
    SETDIJ:  cpu time    0.0080: real time    0.0075
     EDDAV:  cpu time    6.8440: real time    6.8478
       DOS:  cpu time    0.0040: real time    0.0006
    CHARGE:  cpu time    0.1440: real time    0.1475
    MIXING:  cpu time    0.0200: real time    0.0204
    --------------------------------------------
      LOOP:  cpu time    7.3520: real time    7.3600

 eigenvalue-minimisations  :  1380
 total energy-change (2. order) :-0.2461515E+00  (-0.5739272E-03)
 number of electron     351.9999905 magnetization       0.2296726
 augmentation part      225.4280063 magnetization       0.2320127

 Broyden mixing:
  rms(total) = 0.94055E-02    rms(broyden)= 0.94023E-02
  rms(prec ) = 0.11741E-01
  weight for this iteration     100.00

 eigenvalues of (default mixing * dielectric matrix)
  average eigenvalue GAMMA=   1.5343
 10.5875  4.7255  2.8571  1.9197  1.2994  1.2994  1.1446  1.1446  0.8633  0.8633
  0.6814  0.6814  0.6406  0.6406  0.4901  0.3547  0.3547  0.4348  0.4348  0.3869
  0.4165

 Free energy of the ion-electron system (eV)
  ---------------------------------------------------
  alpha Z        PSCENC =        69.42155073
  Ewald energy   TEWEN  =     98152.08205792
  -Hartree energ DENC   =   -138638.82874846
  -exchange      EXHF   =         0.00000000
  -V(xc)+E(xc)   XCENC  =      1418.08887427
  PAW double counting   =     41472.86474599   -44908.16450053
  entropy T*S    EENTRO =         0.00000000
  eigenvalues    EBANDS =     -2166.79313038
  atomic energy  EATOM  =     44509.93870905
  Solvation  Ediel_sol  =         0.00000000
  ---------------------------------------------------
  free energy    TOTEN  =       -91.39044141 eV

  energy without entropy =      -91.39044141  energy(sigma->0) =      -91.39044141


--------------------------------------------------------------------------------------------------------




--------------------------------------- Iteration      1(  27)  ---------------------------------------


    POTLOK:  cpu time    0.3320: real time    0.3353
    SETDIJ:  cpu time    0.0080: real time    0.0075
     EDDAV:  cpu time    5.9960: real time    5.9953
       DOS:  cpu time    0.0000: real time    0.0006
    CHARGE:  cpu time    0.1480: real time    0.1468
    MIXING:  cpu time    0.0200: real time    0.0217
    --------------------------------------------
      LOOP:  cpu time    6.5000: real time    6.5073

 eigenvalue-minimisations  :  1160
 total energy-change (2. order) :-0.9838107E-01  (-0.1937904E-03)
 number of electron     351.9999905 magnetization       0.2005176
 augmentation part      225.4350697 magnetization       0.2004767

 Broyden mixing:
  rms(total) = 0.66186E-02    rms(broyden)= 0.66168E-02
  rms(prec ) = 0.85521E-02
  weight for this iteration     100.00

 eigenvalues of (default mixing * dielectric matrix)
  average eigenvalue GAMMA=   1.5161
 10.5966  4.8394  2.9200  2.0342  1.2973  1.2973  1.2354  1.2354  0.8685  0.8685
  0.6936  0.6936  0.6996  0.6656  0.5509  0.3547  0.3547  0.4713  0.4367  0.4367
  0.3879  0.4162

 Free energy of the ion-electron system (eV)
  ---------------------------------------------------
  alpha Z        PSCENC =        69.42155073
  Ewald energy   TEWEN  =     98152.08205792
  -Hartree energ DENC   =   -138634.86404423
  -exchange      EXHF   =         0.00000000
  -V(xc)+E(xc)   XCENC  =      1417.96489535
  PAW double counting   =     41475.79284007   -44910.96146864
  entropy T*S    EENTRO =         0.00000000
  eigenvalues    EBANDS =     -2170.86336273
  atomic energy  EATOM  =     44509.93870905
  Solvation  Ediel_sol  =         0.00000000
  ---------------------------------------------------
  free energy    TOTEN  =       -91.48882248 eV

  energy without entropy =      -91.48882248  energy(sigma->0) =      -91.48882248


--------------------------------------------------------------------------------------------------------




--------------------------------------- Iteration      1(  28)  ---------------------------------------


    POTLOK:  cpu time    0.3280: real time    0.3413
    SETDIJ:  cpu time    0.0080: real time    0.0076
     EDDAV:  cpu time    6.6600: real time    6.6623
       DOS:  cpu time    0.0000: real time    0.0006
    CHARGE:  cpu time    0.1480: real time    0.1483
    MIXING:  cpu time    0.0240: real time    0.0228
    --------------------------------------------
      LOOP:  cpu time    7.1680: real time    7.1827

 eigenvalue-minimisations  :  1328
 total energy-change (2. order) :-0.3239184E-01  (-0.8332747E-04)
 number of electron     351.9999905 magnetization       0.1388532
 augmentation part      225.4339898 magnetization       0.1365257

 Broyden mixing:
  rms(total) = 0.43634E-02    rms(broyden)= 0.43624E-02
  rms(prec ) = 0.60898E-02
  weight for this iteration     100.00

 eigenvalues of (default mixing * dielectric matrix)
  average eigenvalue GAMMA=   1.5198
 10.6241  4.9197  2.9892  2.3388  1.3460  1.3460  1.3039  1.1469  1.1469  0.8739
  0.8739  0.6821  0.6821  0.7082  0.6267  0.5133  0.3547  0.3547  0.4631  0.4340
  0.4340  0.3903  0.4039

 Free energy of the ion-electron system (eV)
  ---------------------------------------------------
  alpha Z        PSCENC =        69.42155073
  Ewald energy   TEWEN  =     98152.08205792
  -Hartree energ DENC   =   -138632.63294769
  -exchange      EXHF   =         0.00000000
  -V(xc)+E(xc)   XCENC  =      1417.92886528
  PAW double counting   =     41477.41413519   -44912.59355929
  entropy T*S    EENTRO =         0.00000000
  eigenvalues    EBANDS =     -2173.08002551
  atomic energy  EATOM  =     44509.93870905
  Solvation  Ediel_sol  =         0.00000000
  ---------------------------------------------------
  free energy    TOTEN  =       -91.52121432 eV

  energy without entropy =      -91.52121432  energy(sigma->0) =      -91.52121432


--------------------------------------------------------------------------------------------------------




--------------------------------------- Iteration      1(  29)  ---------------------------------------


    POTLOK:  cpu time    0.3280: real time    0.3396
    SETDIJ:  cpu time    0.0080: real time    0.0075
     EDDAV:  cpu time    6.9440: real time    6.9441
       DOS:  cpu time    0.0000: real time    0.0006
    CHARGE:  cpu time    0.1480: real time    0.1481
    MIXING:  cpu time    0.0240: real time    0.0241
    --------------------------------------------
      LOOP:  cpu time    7.4520: real time    7.4642

 eigenvalue-minimisations  :  1400
 total energy-change (2. order) :-0.3063508E-01  (-0.1031151E-03)
 number of electron     351.9999905 magnetization       0.1093924
 augmentation part      225.4294389 magnetization       0.1068046

 Broyden mixing:
  rms(total) = 0.31679E-02    rms(broyden)= 0.31669E-02
  rms(prec ) = 0.42733E-02
  weight for this iteration     100.00

 eigenvalues of (default mixing * dielectric matrix)
  average eigenvalue GAMMA=   1.5165
 10.6115  5.0657  3.2281  2.5250  1.5356  1.3354  1.3354  1.1304  1.1304  0.8736
  0.8736  0.6888  0.6888  0.7240  0.7240  0.5954  0.5013  0.3547  0.3547  0.4380
  0.4380  0.4472  0.3884  0.4085

 Free energy of the ion-electron system (eV)
  ---------------------------------------------------
  alpha Z        PSCENC =        69.42155073
  Ewald energy   TEWEN  =     98152.08205792
  -Hartree energ DENC   =   -138629.16460563
  -exchange      EXHF   =         0.00000000
  -V(xc)+E(xc)   XCENC  =      1417.89427825
  PAW double counting   =     41479.20838737   -44914.43075708
  entropy T*S    EENTRO =         0.00000000
  eigenvalues    EBANDS =     -2176.50147001
  atomic energy  EATOM  =     44509.93870905
  Solvation  Ediel_sol  =         0.00000000
  ---------------------------------------------------
  free energy    TOTEN  =       -91.55184940 eV

  energy without entropy =      -91.55184940  energy(sigma->0) =      -91.55184940


--------------------------------------------------------------------------------------------------------




--------------------------------------- Iteration      1(  30)  ---------------------------------------


    POTLOK:  cpu time    0.3240: real time    0.3426
    SETDIJ:  cpu time    0.0080: real time    0.0076
     EDDAV:  cpu time    6.6520: real time    6.6554
       DOS:  cpu time    0.0040: real time    0.0007
    CHARGE:  cpu time    0.1440: real time    0.1447
    MIXING:  cpu time    0.0240: real time    0.0252
    --------------------------------------------
      LOOP:  cpu time    7.1560: real time    7.1763

 eigenvalue-minimisations  :  1328
 total energy-change (2. order) :-0.1267399E-01  (-0.3095697E-04)
 number of electron     351.9999905 magnetization       0.0733856
 augmentation part      225.4298482 magnetization       0.0704132

 Broyden mixing:
  rms(total) = 0.23278E-02    rms(broyden)= 0.23272E-02
  rms(prec ) = 0.31315E-02
  weight for this iteration     100.00

 eigenvalues of (default mixing * dielectric matrix)
  average eigenvalue GAMMA=   1.5156
[...]
  0.000   0.000  -0.000   0.000  -0.000   0.000  -0.000   0.000  -0.000   0.000   0.000  -0.000   0.000  -0.000  -0.000  -0.000
  0.000   0.000   0.000   0.000  -0.000  -0.000   0.000  -0.000  -0.000   0.000  -0.000   0.000   0.000  -0.000   0.000   0.000
 -0.000   0.000   0.000  -0.000  -0.000   0.000  -0.000   0.000   0.000   0.000   0.000  -0.000   0.000  -0.000   0.000  -0.000
  0.000  -0.000  -0.000   0.000   0.000  -0.000  -0.000   0.000   0.000  -0.000   0.000  -0.000   0.000   0.000  -0.000  -0.000
 -0.000  -0.000  -0.000  -0.000   0.000   0.000   0.000   0.000  -0.000   0.000   0.000  -0.000   0.000  -0.000  -0.000  -0.000
  0.000  -0.000   0.000  -0.000   0.000   0.000  -0.000   0.000   0.000   0.000  -0.000   0.000  -0.000  -0.000   0.000   0.000
 -0.000   0.000   0.000   0.000   0.000  -0.000   0.000  -0.000  -0.000  -0.000   0.000  -0.000  -0.000  -0.000  -0.000  -0.000
  0.000   0.000   0.000   0.000   0.000   0.000   0.000   0.000   0.000   0.000  -0.000  -0.000   0.000  -0.000  -0.000  -0.000
 -0.000   0.000  -0.000  -0.000   0.000  -0.000  -0.000  -0.000   0.000  -0.000  -0.000  -0.000  -0.000   0.000  -0.000   0.000
  0.000   0.000   0.000   0.000  -0.000  -0.000   0.000   0.000  -0.000  -0.000   0.000  -0.000  -0.000  -0.000  -0.000   0.000
 -0.000  -0.000  -0.000   0.000  -0.000  -0.000   0.000  -0.000  -0.000  -0.000   0.000  -0.000  -0.000   0.000   0.000   0.000
  0.000  -0.000   0.000  -0.000  -0.000   0.000   0.000   0.000  -0.000   0.000   0.000  -0.000   0.000  -0.000  -0.000  -0.000
 -0.000   0.000  -0.000  -0.000   0.000  -0.000  -0.000  -0.000   0.000   0.000  -0.000   0.000   0.000   0.000   0.000  -0.000


------------------------ aborting loop because EDIFF is reached ----------------------------------------


 


 total charge     
 
# of ion       s       p       d       tot
------------------------------------------
    1        0.491   0.143   9.272   9.906
    2        0.470   0.229   9.238   9.937
    3        0.465   0.199   9.251   9.915
    4        0.454   0.276   9.224   9.954
    5        0.466   0.256   9.229   9.951
    6        0.473   0.178   9.253   9.904
    7        0.468   0.211   9.252   9.930
    8        0.435   0.348   9.215   9.998
    9        0.487   0.165   9.248   9.900
   10        0.451   0.304   9.205   9.960
   11        0.454   0.383   9.217  10.055
   12        0.456   0.325   9.202   9.984
   13        0.475   0.231   9.231   9.936
   14        0.444   0.330   9.198   9.973
   15        0.445   0.306   9.213   9.965
   16        0.476   0.262   9.228   9.967
   17        0.458   0.257   9.222   9.937
   18        0.459   0.297   9.211   9.967
   19        0.467   0.211   9.235   9.913
   20        0.456   0.301   9.207   9.964
   21        0.417   0.306   9.214   9.938
   22        0.458   0.257   9.221   9.935
   23        0.495   0.133   9.267   9.895
   24        0.489   0.105   9.296   9.890
   25        0.480   0.181   9.259   9.920
   26        0.467   0.337   9.191   9.995
   27        0.440   0.292   9.206   9.938
   28        0.466   0.144   9.287   9.898
   29        0.442   0.176   9.261   9.879
   30        0.454   0.307   9.209   9.970
   31        0.453   0.288   9.224   9.966
   32        0.469   0.173   9.266   9.908
--------------------------------------------------
tot         14.780   7.914 295.454 318.148
 


 magnetization (x)
 
# of ion       s       p       d       tot
------------------------------------------
    1        0.000   0.000  -0.000  -0.000
    2        0.000   0.000  -0.000  -0.000
    3       -0.000  -0.000  -0.000  -0.000
    4        0.000   0.000  -0.000  -0.000
    5       -0.000  -0.000  -0.000  -0.000
    6       -0.000  -0.000  -0.000  -0.000
    7       -0.000  -0.000  -0.000  -0.000
    8       -0.000  -0.000  -0.000  -0.000
    9       -0.000   0.000  -0.000  -0.000
   10       -0.000  -0.000  -0.000  -0.000
   11       -0.000  -0.000  -0.000  -0.000
   12        0.000  -0.000  -0.000  -0.000
   13        0.000   0.000  -0.000  -0.000
   14       -0.000  -0.000  -0.000  -0.000
   15        0.000   0.000  -0.000  -0.000
   16        0.000   0.000  -0.000  -0.000
   17       -0.000   0.000  -0.000  -0.000
   18        0.000  -0.000  -0.000  -0.000
   19       -0.000  -0.000  -0.000  -0.000
   20       -0.000  -0.000  -0.000  -0.000
   21        0.000   0.000  -0.000  -0.000
   22       -0.000  -0.000  -0.000  -0.000
   23       -0.000   0.000  -0.000  -0.000
   24        0.000   0.000  -0.000  -0.000
   25        0.000   0.000  -0.000  -0.000
   26       -0.000  -0.000  -0.000  -0.000
   27       -0.000   0.000  -0.000  -0.000
   28       -0.000   0.000  -0.000  -0.000
   29       -0.000   0.000  -0.000  -0.000
   30       -0.000  -0.000  -0.000  -0.000
   31       -0.000   0.000  -0.000  -0.000
   32        0.000   0.000  -0.000  -0.000
--------------------------------------------------
tot         -0.000   0.000  -0.000  -0.000
 
    CHARGE:  cpu time    0.1480: real time    0.1481
    FORLOC:  cpu time    0.0200: real time    0.0208
    FORNL :  cpu time    2.8640: real time    2.8652
    STRESS:  cpu time    4.6480: real time    4.6466
    FORCOR:  cpu time    0.3200: real time    0.3213
    FORHAR:  cpu time    0.0520: real time    0.0528
    MIXING:  cpu time    0.0480: real time    0.0476
    OFIELD:  cpu time    0.0000: real time    0.0001

  FORCE on cell =-STRESS in cart. coord.  units (eV):
  Direction    XX          YY          ZZ          XY          YZ          ZX
  --------------------------------------------------------------------------------------
  Alpha Z    69.42155    69.42155    69.42155
  Ewald   20642.49760 40537.28214 36972.24156  1528.56270 -5465.22232  4381.70469
  Hartree 34974.96662 53522.42321 50124.03202  1393.26961 -5009.78592  4049.60225
  E(xc)   -2055.49267 -2053.39354 -2053.73606     0.27294    -0.77017     0.47903
  Local  -58799.87076-97231.04847-90259.39054 -2922.62688 10468.05098 -8431.31444
  n-local  -748.98292  -742.42834  -745.04898     0.98021    -1.48838     1.93510
  augment  3016.37484  3008.04370  3005.46012    -0.31558     4.02052    -0.88894
  Kinetic  2891.79326  2880.19410  2878.00902    -0.11861     5.28619    -1.24629
  Fock        0.00000     0.00000     0.00000     0.00000     0.00000     0.00000
  -------------------------------------------------------------------------------------
  Total      -9.29248    -9.50566    -9.01131     0.02439     0.09090     0.27140
  in kB      -1.38014    -1.41181    -1.33838     0.00362     0.01350     0.04031
  external pressure =       -1.38 kB  Pullay stress =        0.00 kB


 VOLUME and BASIS-vectors are now :
 -----------------------------------------------------------------------------
  energy-cutoff  :      295.45
  volume of cell :    10787.43
      direct lattice vectors                 reciprocal lattice vectors
    22.095608000  0.000000000  0.000000000     0.045257863  0.000000000  0.000000000
     0.000000000 22.095608000  0.000000000     0.000000000  0.045257863  0.000000000
     0.000000000  0.000000000 22.095608000     0.000000000  0.000000000  0.045257863

  length of vectors
    22.095608000 22.095608000 22.095608000     0.045257863  0.045257863  0.045257863


 FORCES acting on ions
    electron-ion (+dipol)            ewald-force                    non-local-force                 convergence-correction
 -----------------------------------------------------------------------------------------------
   0.671E+03 -.158E+04 -.947E+03   -.669E+03 0.157E+04 0.941E+03   -.244E+01 0.850E+01 0.581E+01   0.113E-03 -.216E-04 0.114E-03
   0.877E+03 -.127E+03 -.170E+04   -.875E+03 0.126E+03 0.170E+04   -.234E+01 0.600E+00 0.491E+01   0.206E-03 -.235E-03 0.132E-03
   -.119E+04 0.153E+04 -.641E+03   0.118E+04 -.153E+04 0.640E+03   0.349E+01 -.548E+01 0.765E+00   0.114E-03 0.952E-04 0.157E-04
   0.118E+04 0.126E+04 -.737E+03   -.118E+04 -.126E+04 0.735E+03   -.250E+01 -.198E+01 0.137E+01   -.605E-04 -.149E-03 0.113E-03
   -.730E+03 -.162E+04 0.818E+03   0.729E+03 0.161E+04 -.816E+03   0.119E+01 0.311E+01 -.215E+01   0.131E-04 -.266E-04 0.177E-03
   -.144E+04 0.266E+03 -.142E+04   0.144E+04 -.265E+03 0.142E+04   0.529E+01 -.836E+00 0.620E+01   -.181E-03 0.264E-04 0.115E-03
   -.123E+04 0.152E+04 0.754E+03   0.122E+04 -.152E+04 -.751E+03   0.520E+01 -.473E+01 -.270E+01   0.167E-04 -.187E-04 -.139E-03
   -.430E+02 -.276E+03 0.250E+03   0.427E+02 0.276E+03 -.249E+03   0.296E+00 -.374E+00 -.783E+00   -.319E-03 0.115E-03 -.336E-03
   0.129E+04 0.985E+03 0.119E+04   -.128E+04 -.980E+03 -.118E+04   -.449E+01 -.532E+01 -.549E+01   0.264E-03 0.884E-04 -.444E-04
   -.131E+04 0.570E+03 0.127E+04   0.131E+04 -.569E+03 -.127E+04   0.302E+01 -.623E+00 -.255E+01   -.224E-03 -.116E-03 -.467E-03
   -.967E+02 0.810E+03 -.116E+03   0.961E+02 -.808E+03 0.118E+03   0.635E+00 -.188E+01 -.164E+01   -.168E-03 -.429E-03 -.286E-03
   0.384E+00 0.477E+03 0.161E+04   0.163E+01 -.477E+03 -.161E+04   -.202E+01 -.393E-01 -.160E+01   -.585E-04 -.534E-04 -.808E-04
   0.791E+03 -.857E+03 -.157E+04   -.789E+03 0.854E+03 0.157E+04   -.123E+01 0.268E+01 0.494E+01   0.285E-03 0.147E-03 -.148E-03
   -.374E+03 -.330E+03 -.128E+04   0.373E+03 0.331E+03 0.128E+04   0.948E+00 -.374E+00 0.350E+00   0.140E-03 0.265E-03 0.406E-03
   0.152E+04 -.961E+03 -.193E+03   -.152E+04 0.959E+03 0.192E+03   -.245E+01 0.258E+01 0.131E+01   0.183E-04 0.825E-05 0.892E-04
   -.111E+04 -.547E+03 0.156E+04   0.110E+04 0.546E+03 -.155E+04   0.264E+01 0.830E+00 -.379E+01   -.362E-03 -.291E-03 -.453E-03
   0.155E+04 0.115E+04 0.175E+03   -.155E+04 -.115E+04 -.174E+03   -.324E+01 -.140E+01 -.118E+01   0.170E-03 0.131E-03 -.191E-03
   0.172E+04 -.109E+03 0.357E+03   -.172E+04 0.110E+03 -.355E+03   -.267E+01 -.163E+01 -.199E+01   0.398E-04 -.105E-03 -.339E-03
   -.154E+04 -.674E+03 -.106E+04   0.153E+04 0.672E+03 0.106E+04   0.320E+01 0.281E+01 0.348E+01   -.273E-03 0.131E-03 0.188E-03
   -.179E+04 0.420E+03 -.108E+02   0.179E+04 -.418E+03 0.946E+01   0.189E+01 -.185E+01 0.136E+01   -.922E-04 -.125E-03 0.235E-03
   -.369E+03 -.131E+04 -.822E+03   0.369E+03 0.131E+04 0.822E+03   -.265E+00 0.837E+00 -.383E-01   -.124E-04 0.155E-03 0.272E-03
   0.621E+02 0.146E+04 0.129E+04   -.613E+02 -.145E+04 -.129E+04   -.731E+00 -.275E+01 -.234E+01   -.186E-03 0.240E-03 -.182E-03
   -.134E+04 -.145E+04 -.290E+03   0.133E+04 0.144E+04 0.289E+03   0.653E+01 0.770E+01 0.114E+01   -.214E-04 0.599E-04 0.147E-03
   0.591E+03 0.941E+03 -.144E+04   -.587E+03 -.934E+03 0.144E+04   -.395E+01 -.698E+01 0.950E+01   0.733E-05 -.547E-04 0.354E-04
   0.564E+03 -.186E+04 0.365E+03   -.562E+03 0.186E+04 -.363E+03   -.254E+01 0.674E+01 -.123E+01   -.395E-04 -.330E-03 0.384E-03
   0.149E+04 0.241E+02 -.626E+03   -.149E+04 -.248E+02 0.625E+03   0.559E-01 0.752E+00 0.109E+01   -.383E-04 0.138E-03 -.139E-03
   0.748E+03 -.122E+04 0.102E+04   -.747E+03 0.122E+04 -.102E+04   -.650E+00 -.248E+00 -.239E+01   -.926E-04 -.333E-03 -.377E-03
   0.555E+01 -.638E+03 0.185E+04   -.728E+01 0.634E+03 -.184E+04   0.174E+01 0.435E+01 -.996E+01   0.387E-04 0.227E-04 -.644E-04
   0.242E+03 0.205E+04 0.881E+01   -.241E+03 -.204E+04 -.103E+02   -.559E+00 -.754E+01 0.148E+01   -.990E-04 0.127E-03 -.149E-04
   -.172E+04 -.491E+03 0.510E+03   0.172E+04 0.489E+03 -.510E+03   0.345E+01 0.134E+01 0.866E+00   -.395E-04 0.283E-03 0.104E-03
   -.408E+03 0.887E+03 -.153E+04   0.408E+03 -.887E+03 0.153E+04   0.766E-01 -.218E+00 0.141E+01   -.608E-04 0.148E-03 0.299E-03
   0.139E+04 -.299E+03 0.138E+04   -.138E+04 0.296E+03 -.137E+04   -.708E+01 0.307E+01 -.389E+01   0.221E-03 0.167E-04 0.664E-04
 -----------------------------------------------------------------------------------------------
   -.547E+00 -.163E+01 -.256E+01   -.909E-12 0.568E-12 -.273E-11   0.496E+00 0.164E+01 0.227E+01   -.682E-03 -.867E-04 -.365E-03
 
 
 POSITION                                       TOTAL-FORCE (eV/Angst)
 -----------------------------------------------------------------------------------
      9.75253     14.97944     12.74206        -0.022061     -0.035014      0.035634
      9.71254     10.42365     14.45164         0.000844      0.057884      0.033724
     13.07569      7.95241     12.54661        -0.003030      0.005079      0.003688
      9.48486      8.44024     12.92208         0.014354     -0.044581     -0.040905
     12.21441     14.27209      9.69210        -0.028344     -0.015104     -0.041070
     13.72562     10.07207     13.85276        -0.014971      0.023899      0.006055
     12.88817      7.93240     10.15788         0.027438      0.034914     -0.025955
     11.13944     11.62669     10.49261         0.004386      0.005522     -0.014739
      8.53974      9.29006      8.22194        -0.003460      0.038935      0.045623
     12.66210     10.17209      9.25003        -0.020616     -0.063039      0.000212
     11.27864      9.32937     11.40635        -0.048917     -0.002351     -0.024600
     10.57024     10.67750      8.06284        -0.005061      0.015310     -0.020804
      9.84220     12.71289     13.58110        -0.003579     -0.048774      0.022801
     11.69481     11.22359     13.00379        -0.004287     -0.001682      0.013683
      9.23467     13.09590     11.24132        -0.000283      0.069800      0.015913
     12.32678     12.36556      8.23714        -0.028742      0.012716      0.033067
      8.92629      8.80497     10.60168         0.029151      0.020918     -0.049199
      8.73785     11.16193      9.77816        -0.007081     -0.038717      0.018979
     13.82343     12.35309     12.79375        -0.013662     -0.026793      0.002237
     13.57201     10.16793     11.49889         0.019565     -0.020357      0.030344
     11.65047     13.63436     12.02609        -0.000551     -0.012950      0.032312
     10.77668      8.46038      9.08369         0.001184      0.015240      0.013164
     13.83771     14.49106     11.53845        -0.007260      0.017339     -0.011488
      9.68080      8.14852     15.27919        -0.007050      0.010260      0.054155
     10.14915     15.17041     10.38535         0.012829      0.017131     -0.021555
      9.32839     10.79193     12.10361         0.007975     -0.018996     -0.054852
     10.01952     13.19488      8.87196         0.027028      0.030456     -0.031068
     10.56051     12.60296      6.58177         0.004627     -0.005823      0.006100
     10.77451      7.05293     11.22310         0.029091     -0.019759      0.028409
     13.48764     12.34325     10.40638         0.003093     -0.019554      0.005431
     11.58332      8.92400     14.07594         0.023322      0.027709     -0.046251
      8.47900     11.66117      7.41946         0.014070     -0.029615     -0.019044
 -----------------------------------------------------------------------------------
    total drift:                               -0.051468      0.008821     -0.287127


--------------------------------------------------------------------------------------------------------



  FREE ENERGIE OF THE ION-ELECTRON SYSTEM (eV)
  ---------------------------------------------------
  free  energy   TOTEN  =       -91.58682319 eV

  energy  without entropy=      -91.58682319  energy(sigma->0) =      -91.58682319
 


--------------------------------------------------------------------------------------------------------


    POTLOK:  cpu time    0.3320: real time    0.3332


--------------------------------------------------------------------------------------------------------




--------------------------------------------------------------------------------------------------------


  
 reached required accuracy - stopping structural energy minimisation
     LOOP+:  cpu time  287.6600: real time  288.1287
    4ORBIT:  cpu time    0.0000: real time    0.0000
 


 total charge     
 
# of ion       s       p       d       tot
------------------------------------------
    1        0.491   0.143   9.272   9.906
    2        0.470   0.229   9.238   9.937
    3        0.465   0.199   9.251   9.915
    4        0.454   0.276   9.224   9.954
    5        0.466   0.256   9.229   9.951
    6        0.473   0.178   9.253   9.904
    7        0.468   0.211   9.252   9.930
    8        0.435   0.348   9.215   9.998
    9        0.487   0.165   9.248   9.900
   10        0.451   0.304   9.205   9.960
   11        0.454   0.383   9.217  10.055
   12        0.456   0.325   9.202   9.984
   13        0.475   0.231   9.231   9.936
   14        0.444   0.330   9.198   9.973
   15        0.445   0.306   9.213   9.965
   16        0.476   0.262   9.228   9.967
   17        0.458   0.257   9.222   9.937
   18        0.459   0.297   9.211   9.967
   19        0.467   0.211   9.235   9.913
   20        0.456   0.301   9.207   9.964
   21        0.417   0.306   9.214   9.938
   22        0.458   0.257   9.221   9.935
   23        0.495   0.133   9.267   9.895
   24        0.489   0.105   9.296   9.890
   25        0.480   0.181   9.259   9.920
   26        0.467   0.337   9.191   9.995
   27        0.440   0.292   9.206   9.938
   28        0.466   0.144   9.287   9.898
   29        0.442   0.176   9.261   9.879
   30        0.454   0.307   9.209   9.970
   31        0.453   0.288   9.224   9.966
   32        0.469   0.173   9.266   9.908
--------------------------------------------------
tot         14.780   7.914 295.454 318.148
 


 magnetization (x)
 
# of ion       s       p       d       tot
------------------------------------------
    1        0.000   0.000  -0.000  -0.000
    2        0.000   0.000  -0.000  -0.000
    3       -0.000  -0.000  -0.000  -0.000
    4        0.000   0.000  -0.000  -0.000
    5       -0.000  -0.000  -0.000  -0.000
    6       -0.000  -0.000  -0.000  -0.000
    7       -0.000  -0.000  -0.000  -0.000
    8       -0.000  -0.000  -0.000  -0.000
    9       -0.000   0.000  -0.000  -0.000
   10       -0.000  -0.000  -0.000  -0.000
   11       -0.000  -0.000  -0.000  -0.000
   12        0.000  -0.000  -0.000  -0.000
   13        0.000   0.000  -0.000  -0.000
   14       -0.000  -0.000  -0.000  -0.000
   15        0.000   0.000  -0.000  -0.000
   16        0.000   0.000  -0.000  -0.000
   17       -0.000   0.000  -0.000  -0.000
   18        0.000  -0.000  -0.000  -0.000
   19       -0.000  -0.000  -0.000  -0.000
   20       -0.000  -0.000  -0.000  -0.000
   21        0.000   0.000  -0.000  -0.000
   22       -0.000  -0.000  -0.000  -0.000
   23       -0.000   0.000  -0.000  -0.000
   24        0.000   0.000  -0.000  -0.000
   25        0.000   0.000  -0.000  -0.000
   26       -0.000  -0.000  -0.000  -0.000
   27       -0.000   0.000  -0.000  -0.000
   28       -0.000   0.000  -0.000  -0.000
   29       -0.000   0.000  -0.000  -0.000
   30       -0.000  -0.000  -0.000  -0.000
   31       -0.000   0.000  -0.000  -0.000
   32        0.000   0.000  -0.000  -0.000
--------------------------------------------------
tot         -0.000   0.000  -0.000  -0.000
 

 total amount of memory used by VASP MPI-rank0    73480. kBytes
=======================================================================

   base      :      30000. kBytes
   nonl-proj :       3707. kBytes
   fftplans  :       7872. kBytes
   grid      :      20041. kBytes
   one-center:         46. kBytes
   wavefun   :      11814. kBytes
 
  
  
 General timing and accounting informations for this job:
 ========================================================
  
                  Total CPU time used (sec):      293.836
                            User time (sec):      291.588
                          System time (sec):        2.248
                         Elapsed time (sec):      294.379
  
                   Maximum memory used (kb):       40340.
                   Average memory used (kb):           0.
  
                          Minor page faults:        15927
                          Major page faults:           25
                 Voluntary context switches:          528
