 vasp.5.4.4.18Apr17-6-g9f103f2a35 (build Jan 23 2020 13:04:52) gamma-only       
  
 executed on           IFC91_ompi date 2020.12.30  13:52:02
 running on   44 total cores
 distrk:  each k-point on   44 cores,    1 groups
 distr:  one band on NCORES_PER_BAND=  11 cores,    4 groups


--------------------------------------------------------------------------------------------------------


 INCAR:
 POTCAR:    PAW_PBE Cu 22Jun2005                  
 POTCAR:    PAW_PBE Cu 22Jun2005                  
   VRHFIN =Cu: d10 p1                                                           
   LEXCH  = PE                                                                  
   EATOM  =  1390.9808 eV,  102.2342 Ry                                         
                                                                                
   TITEL  = PAW_PBE Cu 22Jun2005                                                
   LULTRA =        F    use ultrasoft PP ?                                      
   IUNSCR =        1    unscreen: 0-lin 1-nonlin 2-no                           
   RPACOR =    2.000    partial core radius                                     
   POMASS =   63.546; ZVAL   =   11.000    mass and valenz                      
   RCORE  =    2.300    outmost cutoff radius                                   
   RWIGS  =    2.200; RWIGS  =    1.164    wigner-seitz radius (au A)           
   ENMAX  =  295.446; ENMIN  =  221.585 eV                                      
   ICORE  =        3    local potential                                         
   LCOR   =        T    correct aug charges                                     
   LPAW   =        T    paw PP                                                  
   EAUG   =  586.980                                                            
   DEXC   =    0.000                                                            
   RMAX   =    2.344    core radius for proj-oper                               
   RAUG   =    1.300    factor for augmentation sphere                          
   RDEP   =    2.302    radius for radial grids                                 
   RDEPT  =    1.771    core radius for aug-charge                              
                                                                                
   Atomic configuration                                                         
    9 entries                                                                   
     n  l   j            E        occ.                                          
     1  0  0.50     -8850.2468   2.0000                                         
     2  0  0.50     -1062.3498   2.0000                                         
     2  1  1.50      -916.8226   6.0000                                         
     3  0  0.50      -114.6929   2.0000                                         
     3  1  1.50       -72.1325   6.0000                                         
     3  2  2.50        -5.0394  10.0000                                         
     4  0  0.50        -4.6097   1.0000                                         
     4  1  0.50        -4.0817   0.0000                                         
     4  3  2.50        -1.3606   0.0000                                         
   Description                                                                  
     l       E           TYP  RCUT    TYP  RCUT                                 
     2     -5.0393973     23  2.200                                             
     2     10.8846608     23  2.200                                             
     0     -4.6097109     23  2.200                                             
     0      8.2520465     23  2.200                                             
     1     -2.7211652     23  2.200                                             
     1     21.7055443     23  2.200                                             
     3      2.7211652     23  2.300                                             
  local pseudopotential read in
  partial core-charges read in
  partial kinetic energy density read in
  atomic valenz-charges read in
  non local Contribution for L=           2  read in
    real space projection operators read in
  non local Contribution for L=           2  read in
    real space projection operators read in
  non local Contribution for L=           0  read in
    real space projection operators read in
  non local Contribution for L=           0  read in
    real space projection operators read in
  non local Contribution for L=           1  read in
    real space projection operators read in
  non local Contribution for L=           1  read in
    real space projection operators read in
    PAW grid and wavefunctions read in
 
   number of l-projection  operators is LMAX  =           6
   number of lm-projection operators is LMMAX =          18
 

 ----------------------------------------------------------------------------- 
|                                                                             |
|  ADVICE TO THIS USER RUNNING 'VASP/VAMP'   (HEAR YOUR MASTER'S VOICE ...):  |
|                                                                             |
|      You have a (more or less) 'large supercell' and for larger cells       |
|      it might be more efficient to use real space projection opertators     |
|      So try LREAL= Auto  in the INCAR   file.                               |
|      Mind:          For very  accurate calculation you might also keep the  |
|      reciprocal projection scheme          (i.e. LREAL=.FALSE.)             |
|                                                                             |
 ----------------------------------------------------------------------------- 

  PAW_PBE Cu 22Jun2005                  :
 energy of atom  1       EATOM=-1390.9808
 kinetic energy error for atom=    0.0452 (will be added to EATOM!!)
 
 
 POSCAR: unknown system                          
  positions in direct lattice
  No initial velocities read in
 exchange correlation table for  LEXCH =        8
   RHO(1)=    0.500       N(1)  =     2000
   RHO(2)=  100.500       N(2)  =     4000
 


--------------------------------------------------------------------------------------------------------


 ion  position               nearest neighbor table
   1  0.480  0.366  0.427-  24 2.40  14 2.40  31 2.42  23 2.48  33 2.56   9 2.59  18 2.73
   2  0.389  0.376  0.610-  14 2.39  11 2.41  27 2.50  25 2.52
   3  0.511  0.481  0.522-  21 2.34  31 2.44  18 2.48  19 2.50  28 2.50  13 2.59  11 2.62  14 2.65
                             8 2.69  15 2.71  32 2.71  27 2.71  29 2.73
   4  0.633  0.491  0.638-  22 2.36  21 2.41   5 2.44  13 2.45  15 2.48
   5  0.628  0.591  0.602-  22 2.35  19 2.40  16 2.44   4 2.44  13 2.56  30 2.66
   6  0.560  0.640  0.445-  20 2.40  16 2.44  30 2.45   7 2.48  29 2.48  19 2.51  32 2.55
   7  0.474  0.660  0.507-  29 2.44   8 2.46   6 2.48  19 2.51  30 2.65  26 2.76
   8  0.444  0.571  0.559-  19 2.40  11 2.41  28 2.42   7 2.46  26 2.58  29 2.60   3 2.69
   9  0.436  0.424  0.340-  31 2.41  33 2.42  12 2.48  24 2.54   1 2.59  10 2.62
  10  0.400  0.522  0.387-  12 2.39  17 2.44  28 2.45  31 2.49  29 2.54  26 2.61   9 2.62  33 2.68

  11  0.422  0.475  0.594-  27 2.40   8 2.41   2 2.41  28 2.44  14 2.58  25 2.62   3 2.62  21 2.67

  12  0.333  0.455  0.345-  10 2.39  33 2.40   9 2.48  17 2.54
  13  0.621  0.503  0.533-  15 2.35  32 2.44   4 2.45  16 2.47  19 2.51   5 2.56   3 2.59  18 2.63

  14  0.436  0.393  0.518-   2 2.39   1 2.40  23 2.43  33 2.45  25 2.45  27 2.47  28 2.57  11 2.58
                             3 2.65
  15  0.593  0.414  0.574-  13 2.35  27 2.39  23 2.44   4 2.48  18 2.58   3 2.71  21 2.77
  16  0.645  0.602  0.497-  20 2.38   5 2.44   6 2.44  13 2.47  19 2.49  30 2.49  32 2.61
  17  0.312  0.499  0.444-  28 2.42  10 2.44  33 2.50  12 2.54  25 2.57  26 2.76
  18  0.579  0.422  0.462-  23 2.47   3 2.48  31 2.53  32 2.54  24 2.56  15 2.58  13 2.63   1 2.73

  19  0.546  0.583  0.537-  30 2.37   5 2.40   8 2.40  16 2.49   3 2.50   6 2.51   7 2.51  13 2.51
                            21 2.55  29 2.56  32 2.67
  20  0.643  0.602  0.393-  16 2.38   6 2.40  32 2.43
  21  0.531  0.508  0.618-   3 2.34   4 2.41  19 2.55  27 2.61  11 2.67  15 2.77
  22  0.678  0.569  0.689-   5 2.35   4 2.36
  23  0.531  0.346  0.521-  14 2.43  15 2.44  18 2.47   1 2.48  27 2.49
  24  0.545  0.409  0.357-  31 2.35   1 2.40   9 2.54  18 2.56
  25  0.337  0.432  0.531-  28 2.38  14 2.45   2 2.52  33 2.56  17 2.57  11 2.62
  26  0.378  0.597  0.471-  28 2.39  29 2.39   8 2.58  10 2.61  17 2.76   7 2.76
  27  0.495  0.401  0.608-  15 2.39  11 2.40  14 2.47  23 2.49   2 2.50  21 2.61   3 2.71
  28  0.407  0.498  0.492-  25 2.38  26 2.39   8 2.42  17 2.42  11 2.44  10 2.45  33 2.47  29 2.50
                             3 2.50  14 2.57  31 2.62
  29  0.478  0.571  0.450-  26 2.39  31 2.42   7 2.44   6 2.48  28 2.50  32 2.51  10 2.54  19 2.56
                             8 2.60   3 2.73
  30  0.583  0.680  0.542-  19 2.37   6 2.45  16 2.49   7 2.65   5 2.66
  31  0.490  0.471  0.418-  24 2.35   9 2.41  29 2.42   1 2.42   3 2.44  10 2.49  32 2.49  18 2.53
                            28 2.62
  32  0.579  0.531  0.439-  20 2.43  13 2.44  31 2.49  29 2.51  18 2.54   6 2.55  16 2.61  19 2.67
                             3 2.71
  33  0.380  0.415  0.429-  12 2.40   9 2.42  14 2.45  28 2.47  17 2.50   1 2.56  25 2.56  10 2.68

 
  LATTYP: Found a simple cubic cell.
 ALAT       =    22.8982000000
  
  Lattice vectors:
  
 A1 = (  22.8982000000,   0.0000000000,   0.0000000000)
 A2 = (   0.0000000000,  22.8982000000,   0.0000000000)
 A3 = (   0.0000000000,   0.0000000000,  22.8982000000)


Analysis of symmetry for initial positions (statically):
=====================================================================
 Subroutine PRICEL returns:
 Original cell was already a primitive cell.
 

 Routine SETGRP: Setting up the symmetry group for a 
 simple cubic supercell.


 Subroutine GETGRP returns: Found  1 space group operations
 (whereof  1 operations were pure point group operations)
 out of a pool of 48 trial point group operations.


The static configuration has the point symmetry C_1 .


Analysis of symmetry for dynamics (positions and initial velocities):
=====================================================================
 Subroutine PRICEL returns:
 Original cell was already a primitive cell.
 

 Routine SETGRP: Setting up the symmetry group for a 
 simple cubic supercell.


 Subroutine GETGRP returns: Found  1 space group operations
 (whereof  1 operations were pure point group operations)
 out of a pool of 48 trial point group operations.


The dynamic configuration has the point symmetry C_1 .


Analysis of structural, dynamic, and magnetic symmetry:
=====================================================================
 Subroutine PRICEL returns:
 Original cell was already a primitive cell.
 

 Routine SETGRP: Setting up the symmetry group for a 
 simple cubic supercell.


 Subroutine GETGRP returns: Found  1 space group operations
 (whereof  1 operations were pure point group operations)
 out of a pool of 48 trial point group operations.


The magnetic configuration has the point symmetry C_1 .


 Subroutine INISYM returns: Found  1 space group operations
 (whereof  1 operations are pure point group operations),
 and found     1 'primitive' translations

 
 
 KPOINTS: Gamma-point only                        
  k-points in reciprocal lattice
Space group operators:
 irot       det(A)        alpha          n_x          n_y          n_z        tau_x        tau_y        tau_z
    1     1.000000     0.000000     1.000000     0.000000     0.000000     0.000000     0.000000     0.000000


--------------------------------------------------------------------------------------------------------




 Dimension of arrays:
   k-points           NKPTS =      1   k-points in BZ     NKDIM =      1   number of bands    NBANDS=    268
   number of dos      NEDOS =    301   number of ions     NIONS =     33
   non local maximal  LDIM  =      6   non local SUM 2l+1 LMDIM =     18
   total plane-waves  NPLWV = 884736
   max r-space proj   IRMAX =      1   max aug-charges    IRDMAX=   2334
   dimension x,y,z NGX =    96 NGY =   96 NGZ =   96
   dimension x,y,z NGXF=   192 NGYF=  192 NGZF=  192
   support grid    NGXF=   192 NGYF=  192 NGZF=  192
   ions per type =              33
   NGX,Y,Z   is equivalent  to a cutoff of   6.97,  6.97,  6.97 a.u.
   NGXF,Y,Z  is equivalent  to a cutoff of  13.94, 13.94, 13.94 a.u.

 SYSTEM =  unknown system                          
 POSCAR =  unknown system                          

 Startparameter for this run:
   NWRITE =      2    write-flag & timer
   PREC   = normal    normal or accurate (medium, high low for compatibility)
   ISTART =      0    job   : 0-new  1-cont  2-samecut
   ICHARG =      2    charge: 1-file 2-atom 10-const
   ISPIN  =      2    spin polarized calculation?
   LNONCOLLINEAR =      F non collinear calculations
   LSORBIT =      F    spin-orbit coupling
   INIWAV =      1    electr: 0-lowe 1-rand  2-diag
   LASPH  =      F    aspherical Exc in radial PAW
   METAGGA=      F    non-selfconsistent MetaGGA calc.

 Electronic Relaxation 1
   ENCUT  =  295.4 eV  21.71 Ry    4.66 a.u.  32.09 32.09 32.09*2*pi/ulx,y,z
   ENINI  =  295.4     initial cutoff
   ENAUG  =  587.0 eV  augmentation charge cutoff
   NELM   =     60;   NELMIN=  2; NELMDL= -5     # of ELM steps 
   EDIFF  = 0.1E-04   stopping-criterion for ELM
   LREAL  =      F    real-space projection
   NLSPLINE    = F    spline interpolate recip. space projectors
   LCOMPAT=      F    compatible to vasp.4.4
   GGA_COMPAT  = T    GGA compatible to vasp.4.4-vasp.4.6
   LMAXPAW     = -100 max onsite density
   LMAXMIX     =    2 max onsite mixed and CHGCAR
   VOSKOWN=      0    Vosko Wilk Nusair interpolation
   ROPT   =    0.00000
 Ionic relaxation
   EDIFFG = -.1E+00   stopping-criterion for IOM
   NSW    =    101    number of steps for IOM
   NBLOCK =      1;   KBLOCK =    101    inner block; outer block 
   IBRION =      2    ionic relax: 0-MD 1-quasi-New 2-CG
   NFREE  =      1    steps in history (QN), initial steepest desc. (CG)
   ISIF   =      2    stress and relaxation
   IWAVPR =     11    prediction:  0-non 1-charg 2-wave 3-comb
   ISYM   =      2    0-nonsym 1-usesym 2-fastsym
   LCORR  =      T    Harris-Foulkes like correction to forces

   POTIM  = 0.5000    time-step for ionic-motion
   TEIN   =    0.0    initial temperature
   TEBEG  =    0.0;   TEEND  =   0.0 temperature during run
   SMASS  =  -3.00    Nose mass-parameter (am)
   estimated Nose-frequenzy (Omega)   =  0.10E-29 period in steps =****** mass=  -0.120E-25a.u.
   SCALEE = 1.0000    scale energy and forces
   NPACO  =    256;   APACO  = 16.0  distance and # of slots for P.C.
   PSTRESS=    0.0 pullay stress

  Mass of Ions in am
   POMASS =  63.55
  Ionic Valenz
   ZVAL   =  11.00
  Atomic Wigner-Seitz radii
   RWIGS  =  -1.00
  virtual crystal weights 
   VCA    =   1.00
   NELECT =     363.0000    total number of electrons
   NUPDOWN=      -1.0000    fix difference up-down

 DOS related values:
   EMIN   =  10.00;   EMAX   =-10.00  energy-range for DOS
   EFERMI =   0.00
   ISMEAR =     0;   SIGMA  =   0.00  broadening in eV -4-tet -1-fermi 0-gaus

 Electronic relaxation 2 (details)
   IALGO  =     38    algorithm
   LDIAG  =      T    sub-space diagonalisation (order eigenvalues)
   LSUBROT=      F    optimize rotation matrix (better conditioning)
   TURBO    =      0    0=normal 1=particle mesh
   IRESTART =      0    0=no restart 2=restart with 2 vectors
   NREBOOT  =      0    no. of reboots
   NMIN     =      0    reboot dimension
   EREF     =   0.00    reference energy to select bands
   IMIX   =      4    mixing-type and parameters
     AMIX     =   0.40;   BMIX     =  1.00
     AMIX_MAG =   1.60;   BMIX_MAG =  1.00
     AMIN     =   0.10
     WC   =   100.;   INIMIX=   1;  MIXPRE=   1;  MAXMIX= -45

 Intra band minimization:
   WEIMIN = 0.0010     energy-eigenvalue tresh-hold
   EBREAK =  0.93E-08  absolut break condition
   DEPER  =   0.30     relativ break condition  

   TIME   =   0.40     timestep for ELM

  volume/ion in A,a.u.               =     363.82      2455.20
  Fermi-wavevector in a.u.,A,eV,Ry     =   0.510006  0.963773  3.538965  0.260107
  Thomas-Fermi vector in A             =   1.522796
 
 Write flags
   LWAVE        =      F    write WAVECAR
   LDOWNSAMPLE  =      F    k-point downsampling of WAVECAR
   LCHARG       =      F    write CHGCAR
   LVTOT        =      F    write LOCPOT, total local potential
   LVHAR        =      F    write LOCPOT, Hartree potential only
   LELF         =      F    write electronic localiz. function (ELF)
   LORBIT       =     11    0 simple, 1 ext, 2 COOP (PROOUT), +10 PAW based schemes


 Dipole corrections
   LMONO  =      F    monopole corrections only (constant potential shift)
   LDIPOL =      F    correct potential (dipole corrections)
   IDIPOL =      0    1-x, 2-y, 3-z, 4-all directions 
   EPSILON=  1.0000000 bulk dielectric constant

 Exchange correlation treatment:
   GGA     =    PE    GGA type
   LEXCH   =     8    internal setting for exchange type
   VOSKOWN=      0    Vosko Wilk Nusair interpolation
   LHFCALC =     F    Hartree Fock is set to
   LHFONE  =     F    Hartree Fock one center treatment
   AEXX    =    0.0000 exact exchange contribution

 Linear response parameters
   LEPSILON=     F    determine dielectric tensor
   LRPA    =     F    only Hartree local field effects (RPA)
   LNABLA  =     F    use nabla operator in PAW spheres
   LVEL    =     F    velocity operator in full k-point grid
   LINTERFAST=   F  fast interpolation
   KINTER  =     0    interpolate to denser k-point grid
   CSHIFT  =0.1000    complex shift for real part using Kramers Kronig
   OMEGAMAX=  -1.0    maximum frequency
   DEG_THRESHOLD= 0.2000000E-02 threshold for treating states as degnerate
   RTIME   =   -0.100 relaxation time in fs
  (WPLASMAI=    0.000 imaginary part of plasma frequency in eV, 0.658/RTIME)
   DFIELD  = 0.0000000 0.0000000 0.0000000 field for delta impulse in time
 
 Orbital magnetization related:
   ORBITALMAG=     F  switch on orbital magnetization
   LCHIMAG   =     F  perturbation theory with respect to B field
   DQ        =  0.001000  dq finite difference perturbation B field
   LLRAUG    =     F  two centre corrections for induced B field



--------------------------------------------------------------------------------------------------------


 conjugate gradient relaxation of ions
 charge density and potential will be updated during run
 spin polarized calculation
 Variant of blocked Davidson
 Davidson routine will perform the subspace rotation
 perform sub-space diagonalisation
    after iterative eigenvector-optimisation
 modified Broyden-mixing scheme, WC =      100.0
 initial mixing is a Kerker type mixing with AMIX =  0.4000 and BMIX =      1.0000
 Hartree-type preconditioning will be used
 using additional bands           86
 reciprocal scheme for non local part
 use partial core corrections
 calculate Harris-corrections to forces 
   (improved forces if not selfconsistent)
 use gradient corrections 
 use of overlap-Matrix (Vanderbilt PP)
 Gauss-broadening in eV      SIGMA  =   0.00


--------------------------------------------------------------------------------------------------------


  energy-cutoff  :      295.45
  volume of cell :    12006.16
      direct lattice vectors                 reciprocal lattice vectors
    22.898200000  0.000000000  0.000000000     0.043671555  0.000000000  0.000000000
     0.000000000 22.898200000  0.000000000     0.000000000  0.043671555  0.000000000
     0.000000000  0.000000000 22.898200000     0.000000000  0.000000000  0.043671555

  length of vectors
    22.898200000 22.898200000 22.898200000     0.043671555  0.043671555  0.043671555


 
 k-points in units of 2pi/SCALE and weight: Gamma-point only                        
   0.00000000  0.00000000  0.00000000       1.000
 
 k-points in reciprocal lattice and weights: Gamma-point only                        
   0.00000000  0.00000000  0.00000000       1.000
 
 position of ions in fractional coordinates (direct lattice) 
   0.48034580  0.36609345  0.42685398
   0.38888395  0.37615557  0.60983493
   0.51061885  0.48119631  0.52197398
   0.63333285  0.49094529  0.63823103
   0.62838282  0.59111735  0.60176938
   0.56047835  0.64023479  0.44501739
   0.47434050  0.66040841  0.50721715
   0.44439015  0.57100517  0.55871823
   0.43638133  0.42441518  0.34045443
   0.39971973  0.52231750  0.38746102
   0.42223608  0.47471597  0.59435028
   0.33261414  0.45474761  0.34472098
   0.62118629  0.50340104  0.53266521
   0.43576614  0.39312071  0.51793799
   0.59277309  0.41394605  0.57381887
   0.64522671  0.60227907  0.49731221
   0.31242288  0.49934054  0.44416952
   0.57929248  0.42243877  0.46249014
   0.54616178  0.58332640  0.53741596
   0.64320126  0.60174705  0.39349805
   0.53144634  0.50832558  0.61829590
   0.67756957  0.56899041  0.68927817
   0.53053118  0.34570607  0.52060028
   0.54523093  0.40926404  0.35679822
   0.33691085  0.43246963  0.53102089
   0.37848956  0.59659824  0.47100375
   0.49511571  0.40069452  0.60755343
   0.40709778  0.49835035  0.49153779
   0.47759967  0.57064042  0.45014141
   0.58324043  0.67976763  0.54172819
   0.49028826  0.47084843  0.41807120
   0.57887237  0.53060911  0.43872881
   0.37985217  0.41478332  0.42933123
 
 position of ions in cartesian coordinates  (Angst):
  10.99905420  8.38288104  9.77418780
   8.90474246  8.61328547 13.96412219
  11.69225255 11.01852935 11.95226459
  14.50218227 11.24176344 14.61434177
  14.38883549 13.53552330 13.77943562
  12.83394535 14.66022427 10.19009720
  10.86154364 15.12216385 11.61435974
  10.17573453 13.07499058 12.79364177
   9.99234697  9.71834367  7.79579363
   9.15286232 11.96013058  8.87215993
   9.66844621 10.87014122 13.60955158
   7.61626510 10.41290172  7.89348994
  14.22404791 11.52697769 12.19707451
   9.97826023  9.00175664 11.85984768
  13.57343677  9.47861944 13.13941925
  14.77453025 13.79110660 11.38755445
   7.15392159 11.43399955 10.17068250
  13.26475507  9.67308744 10.59019172
  12.50612167 13.35712457 12.30585814
  14.72815109 13.77892430  9.01039705
  12.16916458 11.63974080 14.15786318
  15.51512353 13.02885621 15.78322939
  12.14820907  7.91604673 11.92080933
  12.48480688  9.37140984  8.17003700
   7.71465203  9.90277608 12.15942254
   8.66672964 13.66102582 10.78513807
  11.33725855  9.17518326 13.91187995
   9.32180639 11.41132598 11.25533062
  10.93617276 13.06663847 10.30742803
  13.35515601 15.56545515 12.40460044
  11.22671864 10.78158152  9.57307795
  13.25513530 12.14999352 10.04610004
   8.69793096  9.49779142  9.83091237
 


--------------------------------------------------------------------------------------------------------


 use parallel FFT for orbitals z direction half grid
 k-point  1 :   0.0000 0.0000 0.0000  plane waves:   69301

 maximum and minimum number of plane-waves per node :      6309     6293

 maximum number of plane-waves:     69301
 maximum index in each direction: 
   IXMAX=   32   IYMAX=   32   IZMAX=   32
   IXMIN=  -32   IYMIN=  -32   IZMIN=    0


 parallel 3D FFT for wavefunctions:
    minimum data exchange during FFTs selected (reduces bandwidth)
 parallel 3D FFT for charge:
    minimum data exchange during FFTs selected (reduces bandwidth)


 total amount of memory used by VASP MPI-rank0    75800. kBytes
=======================================================================

   base      :      30000. kBytes
   nonl-proj :       4241. kBytes
   fftplans  :       7880. kBytes
   grid      :      20041. kBytes
   one-center:         46. kBytes
   wavefun   :      13592. kBytes
 
     INWAV:  cpu time    0.0000: real time    0.0002
 Broyden mixing: mesh for mixing (old mesh)
   NGX = 65   NGY = 65   NGZ = 65
  (NGX  =192   NGY  =192   NGZ  =192)
  gives a total of 274625 points

 initial charge density was supplied:
 charge density of overlapping atoms calculated
 number of electron     363.0000000 magnetization      99.0000000
 keeping initial charge density in first step


--------------------------------------------------------------------------------------------------------


 Maximum index for augmentation-charges          184 (set IRDMAX)


--------------------------------------------------------------------------------------------------------


 First call to EWALD:  gamma=   0.077
 Maximum number of real-space cells 3x 3x 3
 Maximum number of reciprocal cells 3x 3x 3

    FEWALD:  cpu time    0.0000: real time    0.0016


--------------------------------------- Iteration      1(   1)  ---------------------------------------


    POTLOK:  cpu time    0.3440: real time    0.3521
    SETDIJ:  cpu time    0.0080: real time    0.0078
     EDDAV:  cpu time    6.3880: real time    6.3908
       DOS:  cpu time    0.0000: real time    0.5099
    --------------------------------------------
      LOOP:  cpu time    6.7400: real time    7.2606

 eigenvalue-minimisations  :  1088
 total energy-change (2. order) : 0.2376987E+04  (-0.7830225E+04)
 number of electron     363.0000000 magnetization      99.0000000
 augmentation part      363.0000000 magnetization      99.0000000

 Free energy of the ion-electron system (eV)
  ---------------------------------------------------
  alpha Z        PSCENC =        66.33398224
  Ewald energy   TEWEN  =    103510.39282293
  -Hartree energ DENC   =   -145377.02703628
  -exchange      EXHF   =         0.00000000
  -V(xc)+E(xc)   XCENC  =      1520.78902942
  PAW double counting   =     40498.16693349   -43985.56393627
  entropy T*S    EENTRO =        -0.00000000
  eigenvalues    EBANDS =       243.02097680
  atomic energy  EATOM  =     45900.87429371
  Solvation  Ediel_sol  =         0.00000000
  ---------------------------------------------------
  free energy    TOTEN  =      2376.98706604 eV

  energy without entropy =     2376.98706604  energy(sigma->0) =     2376.98706604


--------------------------------------------------------------------------------------------------------




--------------------------------------- Iteration      1(   2)  ---------------------------------------


     EDDAV:  cpu time    6.5640: real time    6.5743
       DOS:  cpu time    0.0000: real time    0.0005
    --------------------------------------------
      LOOP:  cpu time    6.5640: real time    6.5748

 eigenvalue-minimisations  :  1128
 total energy-change (2. order) :-0.2243838E+04  (-0.2013215E+04)
 number of electron     363.0000000 magnetization      99.0000000
 augmentation part      363.0000000 magnetization      99.0000000

 Free energy of the ion-electron system (eV)
  ---------------------------------------------------
  alpha Z        PSCENC =        66.33398224
  Ewald energy   TEWEN  =    103510.39282293
  -Hartree energ DENC   =   -145377.02703628
  -exchange      EXHF   =         0.00000000
  -V(xc)+E(xc)   XCENC  =      1520.78902942
  PAW double counting   =     40498.16693349   -43985.56393627
  entropy T*S    EENTRO =         0.00000000
  eigenvalues    EBANDS =     -2000.81662126
  atomic energy  EATOM  =     45900.87429371
  Solvation  Ediel_sol  =         0.00000000
  ---------------------------------------------------
  free energy    TOTEN  =       133.14946798 eV

  energy without entropy =      133.14946798  energy(sigma->0) =      133.14946798


--------------------------------------------------------------------------------------------------------




--------------------------------------- Iteration      1(   3)  ---------------------------------------


     EDDAV:  cpu time    7.3720: real time    7.3825
       DOS:  cpu time    0.0000: real time    0.0004
    --------------------------------------------
      LOOP:  cpu time    7.3720: real time    7.3829

 eigenvalue-minimisations  :  1312
 total energy-change (2. order) :-0.1867266E+03  (-0.1760060E+03)
 number of electron     363.0000000 magnetization      99.0000000
 augmentation part      363.0000000 magnetization      99.0000000

 Free energy of the ion-electron system (eV)
  ---------------------------------------------------
  alpha Z        PSCENC =        66.33398224
  Ewald energy   TEWEN  =    103510.39282293
  -Hartree energ DENC   =   -145377.02703628
  -exchange      EXHF   =         0.00000000
  -V(xc)+E(xc)   XCENC  =      1520.78902942
  PAW double counting   =     40498.16693349   -43985.56393627
  entropy T*S    EENTRO =         0.00000000
  eigenvalues    EBANDS =     -2187.54321866
  atomic energy  EATOM  =     45900.87429371
  Solvation  Ediel_sol  =         0.00000000
  ---------------------------------------------------
  free energy    TOTEN  =       -53.57712942 eV

  energy without entropy =      -53.57712942  energy(sigma->0) =      -53.57712942


--------------------------------------------------------------------------------------------------------




--------------------------------------- Iteration      1(   4)  ---------------------------------------


     EDDAV:  cpu time    7.5280: real time    7.5288
       DOS:  cpu time    0.0000: real time    0.0005
    --------------------------------------------
      LOOP:  cpu time    7.5280: real time    7.5292

 eigenvalue-minimisations  :  1344
 total energy-change (2. order) :-0.1144371E+02  (-0.1094673E+02)
 number of electron     363.0000000 magnetization      99.0000000
 augmentation part      363.0000000 magnetization      99.0000000

 Free energy of the ion-electron system (eV)
  ---------------------------------------------------
  alpha Z        PSCENC =        66.33398224
  Ewald energy   TEWEN  =    103510.39282293
  -Hartree energ DENC   =   -145377.02703628
  -exchange      EXHF   =         0.00000000
  -V(xc)+E(xc)   XCENC  =      1520.78902942
  PAW double counting   =     40498.16693349   -43985.56393627
  entropy T*S    EENTRO =         0.00000000
  eigenvalues    EBANDS =     -2198.98692778
  atomic energy  EATOM  =     45900.87429371
  Solvation  Ediel_sol  =         0.00000000
  ---------------------------------------------------
  free energy    TOTEN  =       -65.02083854 eV

  energy without entropy =      -65.02083854  energy(sigma->0) =      -65.02083854


--------------------------------------------------------------------------------------------------------




--------------------------------------- Iteration      1(   5)  ---------------------------------------


     EDDAV:  cpu time    7.4880: real time    7.5032
       DOS:  cpu time    0.0000: real time    0.0006
    CHARGE:  cpu time    0.1560: real time    0.1563
    MIXING:  cpu time    0.0080: real time    0.0093
    --------------------------------------------
      LOOP:  cpu time    7.6520: real time    7.6693

 eigenvalue-minimisations  :  1336
 total energy-change (2. order) :-0.3899280E+00  (-0.3884972E+00)
 number of electron     363.0001463 magnetization      90.2613454
 augmentation part      214.1060613 magnetization      86.0183000

 Broyden mixing:
  rms(total) = 0.10169E+02    rms(broyden)= 0.10167E+02
  rms(prec ) = 0.10281E+02
  weight for this iteration     100.00

 Free energy of the ion-electron system (eV)
  ---------------------------------------------------
  alpha Z        PSCENC =        66.33398224
  Ewald energy   TEWEN  =    103510.39282293
  -Hartree energ DENC   =   -145377.02703628
  -exchange      EXHF   =         0.00000000
  -V(xc)+E(xc)   XCENC  =      1520.78902942
  PAW double counting   =     40498.16693349   -43985.56393627
  entropy T*S    EENTRO =         0.00000000
  eigenvalues    EBANDS =     -2199.37685580
  atomic energy  EATOM  =     45900.87429371
  Solvation  Ediel_sol  =         0.00000000
  ---------------------------------------------------
  free energy    TOTEN  =       -65.41076656 eV

  energy without entropy =      -65.41076656  energy(sigma->0) =      -65.41076656


--------------------------------------------------------------------------------------------------------




--------------------------------------- Iteration      1(   6)  ---------------------------------------


    POTLOK:  cpu time    0.3280: real time    0.3421
    SETDIJ:  cpu time    0.0080: real time    0.0078
     EDDAV:  cpu time    6.5240: real time    6.5235
       DOS:  cpu time    0.0000: real time    0.0007
    CHARGE:  cpu time    0.1480: real time    0.1471
    MIXING:  cpu time    0.0120: real time    0.0103
    --------------------------------------------
      LOOP:  cpu time    7.0200: real time    7.0315

 eigenvalue-minimisations  :  1124
 total energy-change (2. order) : 0.2268982E+03  (-0.1360962E+03)
 number of electron     363.0001747 magnetization      84.1777010
 augmentation part      250.3297052 magnetization      53.6945492

 Broyden mixing:
  rms(total) = 0.49512E+01    rms(broyden)= 0.49486E+01
  rms(prec ) = 0.51327E+01
  weight for this iteration     100.00

 eigenvalues of (default mixing * dielectric matrix)
  average eigenvalue GAMMA=   0.9456
  0.9456

 Free energy of the ion-electron system (eV)
  ---------------------------------------------------
  alpha Z        PSCENC =        66.33398224
  Ewald energy   TEWEN  =    103510.39282293
  -Hartree energ DENC   =   -144439.53521003
  -exchange      EXHF   =         0.00000000
  -V(xc)+E(xc)   XCENC  =      1642.14157304
  PAW double counting   =     40596.42523288   -43908.86447520
  entropy T*S    EENTRO =         0.00000000
  eigenvalues    EBANDS =     -3206.28080734
  atomic energy  EATOM  =     45900.87429371
  Solvation  Ediel_sol  =         0.00000000
  ---------------------------------------------------
  free energy    TOTEN  =       161.48741222 eV

  energy without entropy =      161.48741222  energy(sigma->0) =      161.48741222


--------------------------------------------------------------------------------------------------------




--------------------------------------- Iteration      1(   7)  ---------------------------------------


    POTLOK:  cpu time    0.3280: real time    0.3377
    SETDIJ:  cpu time    0.0080: real time    0.0074
     EDDAV:  cpu time    7.2200: real time    7.2234
       DOS:  cpu time    0.0040: real time    0.0007
    CHARGE:  cpu time    0.1440: real time    0.1469
    MIXING:  cpu time    0.0120: real time    0.0099
    --------------------------------------------
      LOOP:  cpu time    7.7160: real time    7.7260

 eigenvalue-minimisations  :  1280
 total energy-change (2. order) : 0.1946352E+01  (-0.5369698E+02)
 number of electron     363.0001591 magnetization      76.8865249
 augmentation part      235.4123155 magnetization      45.9499664

 Broyden mixing:
  rms(total) = 0.24133E+01    rms(broyden)= 0.24123E+01
  rms(prec ) = 0.24427E+01
  weight for this iteration     100.00

 eigenvalues of (default mixing * dielectric matrix)
  average eigenvalue GAMMA=   0.8759
  1.0445  0.7073

 Free energy of the ion-electron system (eV)
  ---------------------------------------------------
  alpha Z        PSCENC =        66.33398224
  Ewald energy   TEWEN  =    103510.39282293
  -Hartree energ DENC   =   -145233.07327210
  -exchange      EXHF   =         0.00000000
  -V(xc)+E(xc)   XCENC  =      1661.43930993
  PAW double counting   =     41819.21613288   -45415.43243115
  entropy T*S    EENTRO =         0.00000000
  eigenvalues    EBANDS =     -2146.31707383
  atomic energy  EATOM  =     45900.87429371
  Solvation  Ediel_sol  =         0.00000000
  ---------------------------------------------------
  free energy    TOTEN  =       163.43376461 eV

  energy without entropy =      163.43376461  energy(sigma->0) =      163.43376461


--------------------------------------------------------------------------------------------------------




--------------------------------------- Iteration      1(   8)  ---------------------------------------


    POTLOK:  cpu time    0.3320: real time    0.3364
    SETDIJ:  cpu time    0.0080: real time    0.0074
     EDDAV:  cpu time    7.5080: real time    7.5107
       DOS:  cpu time    0.0040: real time    0.0008
    CHARGE:  cpu time    0.1440: real time    0.1477
    MIXING:  cpu time    0.0120: real time    0.0102
    --------------------------------------------
      LOOP:  cpu time    8.0080: real time    8.0132

 eigenvalue-minimisations  :  1344
 total energy-change (2. order) : 0.1706041E+02  (-0.7845912E+01)
 number of electron     363.0001631 magnetization      71.9747271
 augmentation part      232.2955979 magnetization      40.2022042

 Broyden mixing:
  rms(total) = 0.21618E+01    rms(broyden)= 0.21614E+01
  rms(prec ) = 0.22143E+01
  weight for this iteration     100.00

 eigenvalues of (default mixing * dielectric matrix)
  average eigenvalue GAMMA=   0.8247
  1.1758  0.6491  0.6491

 Free energy of the ion-electron system (eV)
  ---------------------------------------------------
  alpha Z        PSCENC =        66.33398224
  Ewald energy   TEWEN  =    103510.39282293
  -Hartree energ DENC   =   -145383.14117585
  -exchange      EXHF   =         0.00000000
  -V(xc)+E(xc)   XCENC  =      1676.44444339
  PAW double counting   =     42550.48448493   -46166.92037086
  entropy T*S    EENTRO =         0.00000000
  eigenvalues    EBANDS =     -1973.97431031
  atomic energy  EATOM  =     45900.87429371
  Solvation  Ediel_sol  =         0.00000000
  ---------------------------------------------------
  free energy    TOTEN  =       180.49417018 eV

  energy without entropy =      180.49417018  energy(sigma->0) =      180.49417018


--------------------------------------------------------------------------------------------------------




--------------------------------------- Iteration      1(   9)  ---------------------------------------


    POTLOK:  cpu time    0.3400: real time    0.3398
    SETDIJ:  cpu time    0.0040: real time    0.0075
     EDDAV:  cpu time    7.0960: real time    7.0935
       DOS:  cpu time    0.0000: real time    0.0007
    CHARGE:  cpu time    0.1560: real time    0.1545
    MIXING:  cpu time    0.0120: real time    0.0114
    --------------------------------------------
      LOOP:  cpu time    7.6080: real time    7.6073

 eigenvalue-minimisations  :  1248
 total energy-change (2. order) :-0.1632857E+02  (-0.2310011E+01)
 number of electron     363.0001588 magnetization      61.2479237
 augmentation part      232.8780050 magnetization      30.0302029

 Broyden mixing:
  rms(total) = 0.15977E+01    rms(broyden)= 0.15974E+01
  rms(prec ) = 0.16170E+01
  weight for this iteration     100.00

 eigenvalues of (default mixing * dielectric matrix)
  average eigenvalue GAMMA=   0.9174
  1.3533  1.1015  0.7624  0.4524

 Free energy of the ion-electron system (eV)
  ---------------------------------------------------
  alpha Z        PSCENC =        66.33398224
  Ewald energy   TEWEN  =    103510.39282293
  -Hartree energ DENC   =   -145352.86993052
  -exchange      EXHF   =         0.00000000
  -V(xc)+E(xc)   XCENC  =      1661.38786140
  PAW double counting   =     42766.95737376   -46368.14679127
  entropy T*S    EENTRO =         0.00000000
  eigenvalues    EBANDS =     -2020.76401393
  atomic energy  EATOM  =     45900.87429371
  Solvation  Ediel_sol  =         0.00000000
  ---------------------------------------------------
  free energy    TOTEN  =       164.16559832 eV

  energy without entropy =      164.16559832  energy(sigma->0) =      164.16559832


--------------------------------------------------------------------------------------------------------




--------------------------------------- Iteration      1(  10)  ---------------------------------------


    POTLOK:  cpu time    0.3400: real time    0.3406
    SETDIJ:  cpu time    0.0040: real time    0.0076
     EDDAV:  cpu time    8.7240: real time    8.7207
       DOS:  cpu time    0.0000: real time    0.0007
    CHARGE:  cpu time    0.1560: real time    0.1554
    MIXING:  cpu time    0.0120: real time    0.0116
    --------------------------------------------
      LOOP:  cpu time    9.2360: real time    9.2366

 eigenvalue-minimisations  :  1616
 total energy-change (2. order) :-0.5845912E+02  (-0.2814026E+01)
 number of electron     363.0001599 magnetization      51.4208683
 augmentation part      234.4630377 magnetization      25.1867572

 Broyden mixing:
  rms(total) = 0.13144E+01    rms(broyden)= 0.13138E+01
  rms(prec ) = 0.13423E+01
  weight for this iteration     100.00

 eigenvalues of (default mixing * dielectric matrix)
  average eigenvalue GAMMA=   1.0689
  2.4334  1.1843  0.6653  0.6039  0.4575

 Free energy of the ion-electron system (eV)
  ---------------------------------------------------
  alpha Z        PSCENC =        66.33398224
  Ewald energy   TEWEN  =    103510.39282293
  -Hartree energ DENC   =   -145308.53160701
  -exchange      EXHF   =         0.00000000
  -V(xc)+E(xc)   XCENC  =      1613.19082618
  PAW double counting   =     43016.41342734   -46577.35968346
  entropy T*S    EENTRO =         0.00000000
  eigenvalues    EBANDS =     -2115.60758002
  atomic energy  EATOM  =     45900.87429371
  Solvation  Ediel_sol  =         0.00000000
  ---------------------------------------------------
  free energy    TOTEN  =       105.70648190 eV

  energy without entropy =      105.70648190  energy(sigma->0) =      105.70648190


--------------------------------------------------------------------------------------------------------




--------------------------------------- Iteration      1(  11)  ---------------------------------------


    POTLOK:  cpu time    0.3280: real time    0.3442
    SETDIJ:  cpu time    0.0080: real time    0.0075
     EDDAV:  cpu time    7.7000: real time    7.7032
       DOS:  cpu time    0.0040: real time    0.0007
    CHARGE:  cpu time    0.1480: real time    0.1505
    MIXING:  cpu time    0.0120: real time    0.0118
    --------------------------------------------
      LOOP:  cpu time    8.2000: real time    8.2179

 eigenvalue-minimisations  :  1392
 total energy-change (2. order) :-0.3163736E+02  (-0.2354722E+01)
 number of electron     363.0001618 magnetization      44.8380520
 augmentation part      234.6559866 magnetization      22.0317812

 Broyden mixing:
  rms(total) = 0.10095E+01    rms(broyden)= 0.10091E+01
  rms(prec ) = 0.10267E+01
  weight for this iteration     100.00

 eigenvalues of (default mixing * dielectric matrix)
  average eigenvalue GAMMA=   1.0580
  2.8421  1.2485  0.6156  0.6156  0.5966  0.4298

 Free energy of the ion-electron system (eV)
  ---------------------------------------------------
  alpha Z        PSCENC =        66.33398224
  Ewald energy   TEWEN  =    103510.39282293
  -Hartree energ DENC   =   -145341.91926959
  -exchange      EXHF   =         0.00000000
  -V(xc)+E(xc)   XCENC  =      1589.93825122
  PAW double counting   =     43211.60803797   -46757.87250284
  entropy T*S    EENTRO =         0.00000000
  eigenvalues    EBANDS =     -2105.28648933
  atomic energy  EATOM  =     45900.87429371
  Solvation  Ediel_sol  =         0.00000000
  ---------------------------------------------------
  free energy    TOTEN  =        74.06912631 eV

  energy without entropy =       74.06912631  energy(sigma->0) =       74.06912631


--------------------------------------------------------------------------------------------------------




--------------------------------------- Iteration      1(  12)  ---------------------------------------


    POTLOK:  cpu time    0.3320: real time    0.3376
    SETDIJ:  cpu time    0.0080: real time    0.0074
     EDDAV:  cpu time    7.3960: real time    7.3969
       DOS:  cpu time    0.0040: real time    0.0006
    CHARGE:  cpu time    0.1520: real time    0.1523
    MIXING:  cpu time    0.0120: real time    0.0124
    --------------------------------------------
      LOOP:  cpu time    7.9040: real time    7.9073

 eigenvalue-minimisations  :  1320
 total energy-change (2. order) :-0.2167869E+02  (-0.1568381E+01)
 number of electron     363.0001609 magnetization      34.8312075
 augmentation part      233.8460912 magnetization      13.6350625

 Broyden mixing:
  rms(total) = 0.77597E+00    rms(broyden)= 0.77584E+00
  rms(prec ) = 0.78846E+00
  weight for this iteration     100.00

 eigenvalues of (default mixing * dielectric matrix)
  average eigenvalue GAMMA=   1.2401
  3.8064  1.6918  0.8257  0.8257  0.6421  0.4311  0.4579

 Free energy of the ion-electron system (eV)
  ---------------------------------------------------
  alpha Z        PSCENC =        66.33398224
  Ewald energy   TEWEN  =    103510.39282293
  -Hartree energ DENC   =   -145385.89453211
  -exchange      EXHF   =         0.00000000
  -V(xc)+E(xc)   XCENC  =      1575.43178977
  PAW double counting   =     43248.60082502   -46797.25907117
  entropy T*S    EENTRO =         0.00000000
  eigenvalues    EBANDS =     -2066.08967489
  atomic energy  EATOM  =     45900.87429371
  Solvation  Ediel_sol  =         0.00000000
  ---------------------------------------------------
  free energy    TOTEN  =        52.39043550 eV

  energy without entropy =       52.39043550  energy(sigma->0) =       52.39043550


--------------------------------------------------------------------------------------------------------




--------------------------------------- Iteration      1(  13)  ---------------------------------------


    POTLOK:  cpu time    0.3400: real time    0.3440
    SETDIJ:  cpu time    0.0040: real time    0.0075
     EDDAV:  cpu time    7.8600: real time    7.8591
       DOS:  cpu time    0.0000: real time    0.0007
    CHARGE:  cpu time    0.1480: real time    0.1479
    MIXING:  cpu time    0.0160: real time    0.0129
    --------------------------------------------
      LOOP:  cpu time    8.3680: real time    8.3721

 eigenvalue-minimisations  :  1424
 total energy-change (2. order) :-0.5139481E+02  (-0.3817180E+01)
 number of electron     363.0001605 magnetization      27.2418701
 augmentation part      232.4799726 magnetization      11.8971765

 Broyden mixing:
  rms(total) = 0.68003E+00    rms(broyden)= 0.67927E+00
  rms(prec ) = 0.69936E+00
  weight for this iteration     100.00

 eigenvalues of (default mixing * dielectric matrix)
  average eigenvalue GAMMA=   1.2869
  4.7641  1.8374  0.9162  0.7241  0.7241  0.4712  0.4712  0.3866

 Free energy of the ion-electron system (eV)
  ---------------------------------------------------
  alpha Z        PSCENC =        66.33398224
  Ewald energy   TEWEN  =    103510.39282293
  -Hartree energ DENC   =   -145408.28667590
  -exchange      EXHF   =         0.00000000
  -V(xc)+E(xc)   XCENC  =      1537.84071809
  PAW double counting   =     43098.90984879   -46648.95742625
  entropy T*S    EENTRO =        -0.00000000
  eigenvalues    EBANDS =     -2056.11193780
  atomic energy  EATOM  =     45900.87429371
  Solvation  Ediel_sol  =         0.00000000
  ---------------------------------------------------
  free energy    TOTEN  =         0.99562581 eV

  energy without entropy =        0.99562581  energy(sigma->0) =        0.99562581


--------------------------------------------------------------------------------------------------------




--------------------------------------- Iteration      1(  14)  ---------------------------------------


    POTLOK:  cpu time    0.3280: real time    0.3410
    SETDIJ:  cpu time    0.0080: real time    0.0074
     EDDAV:  cpu time    8.0440: real time    8.0445
       DOS:  cpu time    0.0000: real time    0.0006
    CHARGE:  cpu time    0.1520: real time    0.1521
    MIXING:  cpu time    0.0120: real time    0.0135
    --------------------------------------------
      LOOP:  cpu time    8.5440: real time    8.5590

 eigenvalue-minimisations  :  1464
 total energy-change (2. order) :-0.2993437E+02  (-0.2327356E+01)
 number of electron     363.0001603 magnetization      21.1834146
 augmentation part      231.8701862 magnetization      10.7025867

 Broyden mixing:
  rms(total) = 0.58826E+00    rms(broyden)= 0.58725E+00
  rms(prec ) = 0.60606E+00
  weight for this iteration     100.00

 eigenvalues of (default mixing * dielectric matrix)
  average eigenvalue GAMMA=   1.2864
  5.3895  1.9235  1.0906  0.6853  0.6853  0.5224  0.5224  0.4063  0.3519

 Free energy of the ion-electron system (eV)
  ---------------------------------------------------
  alpha Z        PSCENC =        66.33398224
  Ewald energy   TEWEN  =    103510.39282293
  -Hartree energ DENC   =   -145414.34677505
  -exchange      EXHF   =         0.00000000
  -V(xc)+E(xc)   XCENC  =      1516.36644078
  PAW double counting   =     43030.54258331   -46579.37565870
  entropy T*S    EENTRO =         0.00000000
  eigenvalues    EBANDS =     -2059.72643734
  atomic energy  EATOM  =     45900.87429371
  Solvation  Ediel_sol  =         0.00000000
  ---------------------------------------------------
  free energy    TOTEN  =       -28.93874812 eV

  energy without entropy =      -28.93874812  energy(sigma->0) =      -28.93874812


--------------------------------------------------------------------------------------------------------




--------------------------------------- Iteration      1(  15)  ---------------------------------------


    POTLOK:  cpu time    0.3360: real time    0.3395
    SETDIJ:  cpu time    0.0080: real time    0.0075
     EDDAV:  cpu time    7.6680: real time    7.6675
       DOS:  cpu time    0.0000: real time    0.0007
    CHARGE:  cpu time    0.1480: real time    0.1470
    MIXING:  cpu time    0.0120: real time    0.0143
    --------------------------------------------
      LOOP:  cpu time    8.1720: real time    8.1765

 eigenvalue-minimisations  :  1376
 total energy-change (2. order) :-0.1638117E+02  (-0.1303901E+01)
 number of electron     363.0001604 magnetization      16.6277118
 augmentation part      231.8710516 magnetization       9.1386103

 Broyden mixing:
  rms(total) = 0.44869E+00    rms(broyden)= 0.44820E+00
  rms(prec ) = 0.46231E+00
  weight for this iteration     100.00

 eigenvalues of (default mixing * dielectric matrix)
  average eigenvalue GAMMA=   1.3170
  6.0594  2.1151  0.9877  0.6928  0.6928  0.6729  0.6729  0.4818  0.4407  0.3544

 Free energy of the ion-electron system (eV)
  ---------------------------------------------------
  alpha Z        PSCENC =        66.33398224
  Ewald energy   TEWEN  =    103510.39282293
  -Hartree energ DENC   =   -145416.30117574
  -exchange      EXHF   =         0.00000000
  -V(xc)+E(xc)   XCENC  =      1504.11632164
  PAW double counting   =     43002.95834724   -46548.68093746
  entropy T*S    EENTRO =         0.00000000
  eigenvalues    EBANDS =     -2065.01356956
  atomic energy  EATOM  =     45900.87429371
  Solvation  Ediel_sol  =         0.00000000
  ---------------------------------------------------
  free energy    TOTEN  =       -45.31991501 eV

  energy without entropy =      -45.31991501  energy(sigma->0) =      -45.31991501


--------------------------------------------------------------------------------------------------------




--------------------------------------- Iteration      1(  16)  ---------------------------------------


    POTLOK:  cpu time    0.3320: real time    0.3388
    SETDIJ:  cpu time    0.0080: real time    0.0076
     EDDAV:  cpu time    7.7840: real time    7.7838
       DOS:  cpu time    0.0000: real time    0.0007
    CHARGE:  cpu time    0.1560: real time    0.1562
    MIXING:  cpu time    0.0160: real time    0.0160
    --------------------------------------------
      LOOP:  cpu time    8.2960: real time    8.3032

 eigenvalue-minimisations  :  1400
 total energy-change (2. order) :-0.1424026E+02  (-0.9720932E+00)
 number of electron     363.0001603 magnetization      13.3151943
 augmentation part      232.2529258 magnetization       8.6319687

 Broyden mixing:
  rms(total) = 0.37887E+00    rms(broyden)= 0.37822E+00
  rms(prec ) = 0.39401E+00
  weight for this iteration     100.00

 eigenvalues of (default mixing * dielectric matrix)
  average eigenvalue GAMMA=   1.3371
  6.7088  2.2628  0.8653  0.8653  0.8319  0.8319  0.6860  0.4600  0.4600  0.3939
  0.3426

 Free energy of the ion-electron system (eV)
  ---------------------------------------------------
  alpha Z        PSCENC =        66.33398224
  Ewald energy   TEWEN  =    103510.39282293
  -Hartree energ DENC   =   -145394.84746482
  -exchange      EXHF   =         0.00000000
  -V(xc)+E(xc)   XCENC  =      1492.79801206
  PAW double counting   =     42936.95157661   -46476.39130167
  entropy T*S    EENTRO =         0.00000000
  eigenvalues    EBANDS =     -2095.67209515
  atomic energy  EATOM  =     45900.87429371
  Solvation  Ediel_sol  =         0.00000000
  ---------------------------------------------------
  free energy    TOTEN  =       -59.56017410 eV

  energy without entropy =      -59.56017410  energy(sigma->0) =      -59.56017410


--------------------------------------------------------------------------------------------------------




--------------------------------------- Iteration      1(  17)  ---------------------------------------


    POTLOK:  cpu time    0.3280: real time    0.3401
    SETDIJ:  cpu time    0.0080: real time    0.0076
     EDDAV:  cpu time    7.5880: real time    7.5897
       DOS:  cpu time    0.0000: real time    0.0007
    CHARGE:  cpu time    0.1520: real time    0.1520
    MIXING:  cpu time    0.0160: real time    0.0157
    --------------------------------------------
      LOOP:  cpu time    8.0920: real time    8.1059

 eigenvalue-minimisations  :  1360
 total energy-change (2. order) :-0.8695879E+01  (-0.4334403E+00)
 number of electron     363.0001605 magnetization       9.6104163
 augmentation part      232.5091555 magnetization       7.3401066

 Broyden mixing:
  rms(total) = 0.31456E+00    rms(broyden)= 0.31395E+00
  rms(prec ) = 0.32649E+00
  weight for this iteration     100.00

 eigenvalues of (default mixing * dielectric matrix)
  average eigenvalue GAMMA=   1.3644
  7.4760  2.2911  1.0275  1.0275  0.9801  0.7128  0.7128  0.4987  0.4987  0.4132
  0.3729  0.3613

 Free energy of the ion-electron system (eV)
  ---------------------------------------------------
  alpha Z        PSCENC =        66.33398224
  Ewald energy   TEWEN  =    103510.39282293
  -Hartree energ DENC   =   -145376.55716290
  -exchange      EXHF   =         0.00000000
  -V(xc)+E(xc)   XCENC  =      1485.56665589
  PAW double counting   =     42877.55574791   -46414.15163146
  entropy T*S    EENTRO =         0.00000000
  eigenvalues    EBANDS =     -2118.27076107
  atomic energy  EATOM  =     45900.87429371
  Solvation  Ediel_sol  =         0.00000000
  ---------------------------------------------------
  free energy    TOTEN  =       -68.25605276 eV

  energy without entropy =      -68.25605276  energy(sigma->0) =      -68.25605276


--------------------------------------------------------------------------------------------------------




--------------------------------------- Iteration      1(  18)  ---------------------------------------


    POTLOK:  cpu time    0.3280: real time    0.3389
    SETDIJ:  cpu time    0.0080: real time    0.0074
     EDDAV:  cpu time    7.8800: real time    7.8805
       DOS:  cpu time    0.0040: real time    0.0007
    CHARGE:  cpu time    0.1480: real time    0.1487
    MIXING:  cpu time    0.0160: real time    0.0166
    --------------------------------------------
      LOOP:  cpu time    8.3840: real time    8.3928

 eigenvalue-minimisations  :  1424
 total energy-change (2. order) :-0.6546198E+01  (-0.2554775E+00)
 number of electron     363.0001606 magnetization       6.9182358
 augmentation part      232.4521837 magnetization       5.2399544

 Broyden mixing:
  rms(total) = 0.24313E+00    rms(broyden)= 0.24305E+00
  rms(prec ) = 0.25230E+00
  weight for this iteration     100.00

 eigenvalues of (default mixing * dielectric matrix)
  average eigenvalue GAMMA=   1.4282
  8.3996  2.4924  1.1992  1.1992  0.8987  0.8987  0.6698  0.6698  0.5134  0.5134
  0.3910  0.3910  0.3307

 Free energy of the ion-electron system (eV)
  ---------------------------------------------------
  alpha Z        PSCENC =        66.33398224
  Ewald energy   TEWEN  =    103510.39282293
  -Hartree energ DENC   =   -145374.42709973
  -exchange      EXHF   =         0.00000000
  -V(xc)+E(xc)   XCENC  =      1480.25454352
  PAW double counting   =     42856.01774309   -46394.05543791
  entropy T*S    EENTRO =         0.00000000
  eigenvalues    EBANDS =     -2120.19309812
  atomic energy  EATOM  =     45900.87429371
  Solvation  Ediel_sol  =         0.00000000
  ---------------------------------------------------
  free energy    TOTEN  =       -74.80225028 eV

  energy without entropy =      -74.80225028  energy(sigma->0) =      -74.80225028


--------------------------------------------------------------------------------------------------------




--------------------------------------- Iteration      1(  19)  ---------------------------------------


    POTLOK:  cpu time    0.3280: real time    0.3397
    SETDIJ:  cpu time    0.0080: real time    0.0074
     EDDAV:  cpu time    7.7480: real time    7.7471
       DOS:  cpu time    0.0000: real time    0.0007
    CHARGE:  cpu time    0.1520: real time    0.1508
    MIXING:  cpu time    0.0160: real time    0.0171
    --------------------------------------------
      LOOP:  cpu time    8.2520: real time    8.2629

 eigenvalue-minimisations  :  1392
 total energy-change (2. order) :-0.6410236E+01  (-0.1899213E+00)
 number of electron     363.0001605 magnetization       5.4798580
 augmentation part      232.4839399 magnetization       4.2459088

 Broyden mixing:
  rms(total) = 0.18837E+00    rms(broyden)= 0.18833E+00
  rms(prec ) = 0.19532E+00
  weight for this iteration     100.00

 eigenvalues of (default mixing * dielectric matrix)
  average eigenvalue GAMMA=   1.4662
  9.0009  2.8304  1.3718  1.3718  0.9269  0.9269  0.7236  0.7236  0.5435  0.5435
  0.4257  0.4257  0.3759  0.3367

 Free energy of the ion-electron system (eV)
  ---------------------------------------------------
  alpha Z        PSCENC =        66.33398224
  Ewald energy   TEWEN  =    103510.39282293
  -Hartree energ DENC   =   -145355.16591799
  -exchange      EXHF   =         0.00000000
  -V(xc)+E(xc)   XCENC  =      1474.49554141
  PAW double counting   =     42804.87122137   -46344.06523337
  entropy T*S    EENTRO =         0.00000000
  eigenvalues    EBANDS =     -2138.94919646
  atomic energy  EATOM  =     45900.87429371
  Solvation  Ediel_sol  =         0.00000000
  ---------------------------------------------------
  free energy    TOTEN  =       -81.21248616 eV

  energy without entropy =      -81.21248616  energy(sigma->0) =      -81.21248616


--------------------------------------------------------------------------------------------------------




--------------------------------------- Iteration      1(  20)  ---------------------------------------


    POTLOK:  cpu time    0.3360: real time    0.3391
    SETDIJ:  cpu time    0.0080: real time    0.0076
     EDDAV:  cpu time    7.5840: real time    7.5868
       DOS:  cpu time    0.0040: real time    0.0007
    CHARGE:  cpu time    0.1480: real time    0.1503
    MIXING:  cpu time    0.0200: real time    0.0181
    --------------------------------------------
      LOOP:  cpu time    8.1000: real time    8.1026

 eigenvalue-minimisations  :  1352
 total energy-change (2. order) :-0.4926171E+01  (-0.9273591E-01)
 number of electron     363.0001606 magnetization       3.8988497
 augmentation part      232.5838089 magnetization       2.8913286

 Broyden mixing:
  rms(total) = 0.12665E+00    rms(broyden)= 0.12661E+00
  rms(prec ) = 0.13261E+00
  weight for this iteration     100.00

 eigenvalues of (default mixing * dielectric matrix)
  average eigenvalue GAMMA=   1.5000
  9.5799  3.2841  1.2043  1.2043  1.0385  1.0385  1.0192  0.7323  0.7323  0.5595
  0.5595  0.4283  0.4087  0.3735  0.3377

 Free energy of the ion-electron system (eV)
  ---------------------------------------------------
  alpha Z        PSCENC =        66.33398224
  Ewald energy   TEWEN  =    103510.39282293
  -Hartree energ DENC   =   -145325.82006898
  -exchange      EXHF   =         0.00000000
  -V(xc)+E(xc)   XCENC  =      1469.65581735
  PAW double counting   =     42743.00826322   -46282.24127892
  entropy T*S    EENTRO =         0.00000000
  eigenvalues    EBANDS =     -2168.34248872
  atomic energy  EATOM  =     45900.87429371
  Solvation  Ediel_sol  =         0.00000000
  ---------------------------------------------------
  free energy    TOTEN  =       -86.13865717 eV

  energy without entropy =      -86.13865717  energy(sigma->0) =      -86.13865717


--------------------------------------------------------------------------------------------------------




--------------------------------------- Iteration      1(  21)  ---------------------------------------


    POTLOK:  cpu time    0.3400: real time    0.3459
    SETDIJ:  cpu time    0.0080: real time    0.0075
     EDDAV:  cpu time    7.6200: real time    7.6184
       DOS:  cpu time    0.0000: real time    0.0005
    CHARGE:  cpu time    0.1520: real time    0.1520
    MIXING:  cpu time    0.0200: real time    0.0190
    --------------------------------------------
      LOOP:  cpu time    8.1400: real time    8.1434

 eigenvalue-minimisations  :  1360
 total energy-change (2. order) :-0.3054051E+01  (-0.3821990E-01)
 number of electron     363.0001604 magnetization       2.6705580
 augmentation part      232.5746260 magnetization       1.7341749

 Broyden mixing:
  rms(total) = 0.87047E-01    rms(broyden)= 0.87024E-01
  rms(prec ) = 0.91962E-01
  weight for this iteration     100.00

 eigenvalues of (default mixing * dielectric matrix)
  average eigenvalue GAMMA=   1.5558
 10.0728  3.6790  1.8331  1.4136  1.4136  0.9061  0.9061  0.7248  0.7248  0.5628
  0.5628  0.5580  0.4143  0.4084  0.3767  0.3367

 Free energy of the ion-electron system (eV)
  ---------------------------------------------------
  alpha Z        PSCENC =        66.33398224
  Ewald energy   TEWEN  =    103510.39282293
  -Hartree energ DENC   =   -145307.70586648
  -exchange      EXHF   =         0.00000000
  -V(xc)+E(xc)   XCENC  =      1466.63416480
  PAW double counting   =     42730.30114576   -46271.23482281
  entropy T*S    EENTRO =         0.00000000
  eigenvalues    EBANDS =     -2184.78842873
  atomic energy  EATOM  =     45900.87429371
  Solvation  Ediel_sol  =         0.00000000
  ---------------------------------------------------
  free energy    TOTEN  =       -89.19270859 eV

  energy without entropy =      -89.19270859  energy(sigma->0) =      -89.19270859


--------------------------------------------------------------------------------------------------------




--------------------------------------- Iteration      1(  22)  ---------------------------------------


    POTLOK:  cpu time    0.3280: real time    0.3442
    SETDIJ:  cpu time    0.0040: real time    0.0074
     EDDAV:  cpu time    7.7480: real time    7.7477
       DOS:  cpu time    0.0000: real time    0.0007
    CHARGE:  cpu time    0.1560: real time    0.1531
    MIXING:  cpu time    0.0200: real time    0.0197
    --------------------------------------------
      LOOP:  cpu time    8.2560: real time    8.2727

 eigenvalue-minimisations  :  1392
 total energy-change (2. order) :-0.1972417E+01  (-0.1733242E-01)
 number of electron     363.0001605 magnetization       2.1041049
 augmentation part      232.5476621 magnetization       1.1804214

 Broyden mixing:
  rms(total) = 0.59194E-01    rms(broyden)= 0.59173E-01
  rms(prec ) = 0.63831E-01
  weight for this iteration     100.00

 eigenvalues of (default mixing * dielectric matrix)
  average eigenvalue GAMMA=   1.5836
 10.4182  4.2170  2.0864  1.4226  1.4226  0.9454  0.9454  0.9007  0.7086  0.7086
  0.5568  0.5568  0.4983  0.4106  0.4106  0.3763  0.3371

 Free energy of the ion-electron system (eV)
  ---------------------------------------------------
  alpha Z        PSCENC =        66.33398224
  Ewald energy   TEWEN  =    103510.39282293
  -Hartree energ DENC   =   -145292.70801579
  -exchange      EXHF   =         0.00000000
  -V(xc)+E(xc)   XCENC  =      1464.63387979
  PAW double counting   =     42733.27024950   -46275.63503891
  entropy T*S    EENTRO =         0.00000000
  eigenvalues    EBANDS =     -2198.32729939
  atomic energy  EATOM  =     45900.87429371
  Solvation  Ediel_sol  =         0.00000000
  ---------------------------------------------------
  free energy    TOTEN  =       -91.16512592 eV

  energy without entropy =      -91.16512592  energy(sigma->0) =      -91.16512592


--------------------------------------------------------------------------------------------------------




--------------------------------------- Iteration      1(  23)  ---------------------------------------


    POTLOK:  cpu time    0.3320: real time    0.3383
    SETDIJ:  cpu time    0.0080: real time    0.0074
     EDDAV:  cpu time    7.4560: real time    7.4560
       DOS:  cpu time    0.0000: real time    0.0007
    CHARGE:  cpu time    0.1520: real time    0.1508
    MIXING:  cpu time    0.0200: real time    0.0213
    --------------------------------------------
      LOOP:  cpu time    7.9680: real time    7.9746

 eigenvalue-minimisations  :  1324
 total energy-change (2. order) :-0.1178113E+01  (-0.7165765E-02)
 number of electron     363.0001605 magnetization       1.7611319
 augmentation part      232.5527237 magnetization       0.8353446

 Broyden mixing:
  rms(total) = 0.31301E-01    rms(broyden)= 0.31284E-01
  rms(prec ) = 0.34854E-01
  weight for this iteration     100.00

 eigenvalues of (default mixing * dielectric matrix)
  average eigenvalue GAMMA=   1.6115
 10.7839  4.7354  2.3313  1.4974  1.3395  1.3395  0.9162  0.9162  0.7218  0.7218
  0.5869  0.5869  0.5280  0.4629  0.4143  0.4143  0.3737  0.3370

 Free energy of the ion-electron system (eV)
  ---------------------------------------------------
  alpha Z        PSCENC =        66.33398224
  Ewald energy   TEWEN  =    103510.39282293
  -Hartree energ DENC   =   -145276.03012643
  -exchange      EXHF   =         0.00000000
  -V(xc)+E(xc)   XCENC  =      1463.35316574
  PAW double counting   =     42731.19356367   -46273.78376689
  entropy T*S    EENTRO =         0.00000000
  eigenvalues    EBANDS =     -2214.67717421
  atomic energy  EATOM  =     45900.87429371
  Solvation  Ediel_sol  =         0.00000000
  ---------------------------------------------------
  free energy    TOTEN  =       -92.34323925 eV

  energy without entropy =      -92.34323925  energy(sigma->0) =      -92.34323925


--------------------------------------------------------------------------------------------------------




--------------------------------------- Iteration      1(  24)  ---------------------------------------


    POTLOK:  cpu time    0.3400: real time    0.3394
    SETDIJ:  cpu time    0.0040: real time    0.0074
     EDDAV:  cpu time    7.7680: real time    7.7681
       DOS:  cpu time    0.0040: real time    0.0006
    CHARGE:  cpu time    0.1480: real time    0.1509
    MIXING:  cpu time    0.0240: real time    0.0223
    --------------------------------------------
      LOOP:  cpu time    8.2880: real time    8.2888

 eigenvalue-minimisations  :  1396
 total energy-change (2. order) :-0.5406729E+00  (-0.1892518E-02)
 number of electron     363.0001605 magnetization       1.4235492
 augmentation part      232.5718147 magnetization       0.5085344

 Broyden mixing:
  rms(total) = 0.22946E-01    rms(broyden)= 0.22936E-01
  rms(prec ) = 0.25427E-01
  weight for this iteration     100.00

 eigenvalues of (default mixing * dielectric matrix)
  average eigenvalue GAMMA=   1.6053
 11.0478  4.8524  2.5401  1.4567  1.4567  1.3054  0.9233  0.9233  0.8942  0.7047
  0.7047  0.5749  0.5749  0.5406  0.3369  0.4648  0.3748  0.4123  0.4123

 Free energy of the ion-electron system (eV)
  ---------------------------------------------------
  alpha Z        PSCENC =        66.33398224
  Ewald energy   TEWEN  =    103510.39282293
  -Hartree energ DENC   =   -145265.38555394
  -exchange      EXHF   =         0.00000000
  -V(xc)+E(xc)   XCENC  =      1462.73749800
  PAW double counting   =     42732.34091056   -46274.68241606
  entropy T*S    EENTRO =         0.00000000
  eigenvalues    EBANDS =     -2225.49544958
  atomic energy  EATOM  =     45900.87429371
  Solvation  Ediel_sol  =         0.00000000
  ---------------------------------------------------
  free energy    TOTEN  =       -92.88391213 eV

  energy without entropy =      -92.88391213  energy(sigma->0) =      -92.88391213


--------------------------------------------------------------------------------------------------------




--------------------------------------- Iteration      1(  25)  ---------------------------------------


    POTLOK:  cpu time    0.3280: real time    0.3376
    SETDIJ:  cpu time    0.0080: real time    0.0074
     EDDAV:  cpu time    6.8360: real time    6.8383
       DOS:  cpu time    0.0000: real time    0.0007
    CHARGE:  cpu time    0.1520: real time    0.1486
    MIXING:  cpu time    0.0200: real time    0.0231
    --------------------------------------------
      LOOP:  cpu time    7.3440: real time    7.3557

 eigenvalue-minimisations  :  1184
 total energy-change (2. order) :-0.2739023E+00  (-0.7067545E-03)
 number of electron     363.0001605 magnetization       1.2897022
 augmentation part      232.5660483 magnetization       0.3827451

 Broyden mixing:
  rms(total) = 0.12733E-01    rms(broyden)= 0.12728E-01
  rms(prec ) = 0.14936E-01
  weight for this iteration     100.00

 eigenvalues of (default mixing * dielectric matrix)
  average eigenvalue GAMMA=   1.5953
 11.1329  4.9454  2.7940  1.5213  1.5213  1.2417  1.2417  0.9139  0.9139  0.7083
  0.7083  0.6067  0.6067  0.5315  0.5315  0.3369  0.3748  0.4537  0.4105  0.4105

 Free energy of the ion-electron system (eV)
  ---------------------------------------------------
  alpha Z        PSCENC =        66.33398224
  Ewald energy   TEWEN  =    103510.39282293
  -Hartree energ DENC   =   -145260.73511529
  -exchange      EXHF   =         0.00000000
  -V(xc)+E(xc)   XCENC  =      1462.45647205
  PAW double counting   =     42740.23798117   -46282.61301999
  entropy T*S    EENTRO =         0.00000000
  eigenvalues    EBANDS =     -2230.10523121
  atomic energy  EATOM  =     45900.87429371
  Solvation  Ediel_sol  =         0.00000000
  ---------------------------------------------------
  free energy    TOTEN  =       -93.15781439 eV

  energy without entropy =      -93.15781439  energy(sigma->0) =      -93.15781439


--------------------------------------------------------------------------------------------------------




--------------------------------------- Iteration      1(  26)  ---------------------------------------


    POTLOK:  cpu time    0.3320: real time    0.3405
    SETDIJ:  cpu time    0.0080: real time    0.0076
     EDDAV:  cpu time    6.9240: real time    6.9251
       DOS:  cpu time    0.0000: real time    0.0007
    CHARGE:  cpu time    0.1560: real time    0.1548
    MIXING:  cpu time    0.0240: real time    0.0247
    --------------------------------------------
      LOOP:  cpu time    7.4440: real time    7.4534

 eigenvalue-minimisations  :  1204
 total energy-change (2. order) :-0.1576809E+00  (-0.3480251E-03)
 number of electron     363.0001605 magnetization       1.2311383
 augmentation part      232.5544473 magnetization       0.3219987

 Broyden mixing:
  rms(total) = 0.85928E-02    rms(broyden)= 0.85904E-02
  rms(prec ) = 0.10466E-01
  weight for this iteration     100.00

 eigenvalues of (default mixing * dielectric matrix)
  average eigenvalue GAMMA=   1.5924
 11.1558  5.1239  2.9684  1.9837  1.3835  1.3835  0.9992  0.9992  0.9251  0.9251
  0.6856  0.6856  0.6672  0.5434  0.5434  0.4997  0.3370  0.3745  0.4113  0.4113
  0.4351

 Free energy of the ion-electron system (eV)
  ---------------------------------------------------
  alpha Z        PSCENC =        66.33398224
  Ewald energy   TEWEN  =    103510.39282293
  -Hartree energ DENC   =   -145257.72644295
  -exchange      EXHF   =         0.00000000
  -V(xc)+E(xc)   XCENC  =      1462.30502392
  PAW double counting   =     42745.89902766   -46288.30180828
  entropy T*S    EENTRO =         0.00000000
  eigenvalues    EBANDS =     -2233.09239448
  atomic energy  EATOM  =     45900.87429371
  Solvation  Ediel_sol  =         0.00000000
  ---------------------------------------------------
  free energy    TOTEN  =       -93.31549525 eV

  energy without entropy =      -93.31549525  energy(sigma->0) =      -93.31549525


--------------------------------------------------------------------------------------------------------




--------------------------------------- Iteration      1(  27)  ---------------------------------------


    POTLOK:  cpu time    0.3280: real time    0.3365
    SETDIJ:  cpu time    0.0080: real time    0.0075
     EDDAV:  cpu time    7.8840: real time    7.8825
       DOS:  cpu time    0.0000: real time    0.0007
    CHARGE:  cpu time    0.1480: real time    0.1480
    MIXING:  cpu time    0.0240: real time    0.0262
    --------------------------------------------
      LOOP:  cpu time    8.3920: real time    8.4015

 eigenvalue-minimisations  :  1424
 total energy-change (2. order) :-0.9206457E-01  (-0.1587368E-03)
 number of electron     363.0001605 magnetization       1.1821240
 augmentation part      232.5621853 magnetization       0.2737811

 Broyden mixing:
  rms(total) = 0.56374E-02    rms(broyden)= 0.56355E-02
  rms(prec ) = 0.72447E-02
  weight for this iteration     100.00

 eigenvalues of (default mixing * dielectric matrix)
  average eigenvalue GAMMA=   1.5880
 11.1707  5.2709  3.1294  2.2236  1.3711  1.3711  1.1853  1.1853  0.9023  0.9023
  0.6959  0.6959  0.7143  0.5905  0.5515  0.5515  0.3369  0.3748  0.4460  0.4460
  0.4104  0.4104

 Free energy of the ion-electron system (eV)
  ---------------------------------------------------
  alpha Z        PSCENC =        66.33398224
  Ewald energy   TEWEN  =    103510.39282293
  -Hartree energ DENC   =   -145254.08102063
  -exchange      EXHF   =         0.00000000
  -V(xc)+E(xc)   XCENC  =      1462.18742350
  PAW double counting   =     42747.32410391   -46289.52849621
  entropy T*S    EENTRO =         0.00000000
  eigenvalues    EBANDS =     -2236.91066928
  atomic energy  EATOM  =     45900.87429371
  Solvation  Ediel_sol  =         0.00000000
  ---------------------------------------------------
  free energy    TOTEN  =       -93.40755982 eV

  energy without entropy =      -93.40755982  energy(sigma->0) =      -93.40755982


--------------------------------------------------------------------------------------------------------




--------------------------------------- Iteration      1(  28)  ---------------------------------------


    POTLOK:  cpu time    0.3360: real time    0.3414
    SETDIJ:  cpu time    0.0080: real time    0.0075
     EDDAV:  cpu time    7.8160: real time    7.8134
       DOS:  cpu time    0.0000: real time    0.0007
    CHARGE:  cpu time    0.1480: real time    0.1486
    MIXING:  cpu time    0.0280: real time    0.0286
    --------------------------------------------
      LOOP:  cpu time    8.3360: real time    8.3401

 eigenvalue-minimisations  :  1408
 total energy-change (2. order) :-0.4354360E-01  (-0.8898056E-04)
 number of electron     363.0001605 magnetization       1.1402465
 augmentation part      232.5679715 magnetization       0.2308625

 Broyden mixing:
  rms(total) = 0.39016E-02    rms(broyden)= 0.39006E-02
  rms(prec ) = 0.51446E-02
  weight for this iteration     100.00

 eigenvalues of (default mixing * dielectric matrix)
  average eigenvalue GAMMA=   1.5875
 11.1757  5.4102  3.3013  2.4447  1.5466  1.3542  1.3542  1.0499  0.9193  0.9193
  0.8577  0.8007  0.6794  0.6794  0.5529  0.5225  0.5225  0.3369  0.3746  0.4481
  0.4481  0.4074  0.4074

 Free energy of the ion-electron system (eV)
  ---------------------------------------------------
  alpha Z        PSCENC =        66.33398224
  Ewald energy   TEWEN  =    103510.39282293
  -Hartree energ DENC   =   -145251.22237524
  -exchange      EXHF   =         0.00000000
  -V(xc)+E(xc)   XCENC  =      1462.12477085
  PAW double counting   =     42748.89774366   -46290.98349703
  entropy T*S    EENTRO =         0.00000000
  eigenvalues    EBANDS =     -2239.86884454
  atomic energy  EATOM  =     45900.87429371
  Solvation  Ediel_sol  =         0.00000000
  ---------------------------------------------------
  free energy    TOTEN  =       -93.45110343 eV

  energy without entropy =      -93.45110343  energy(sigma->0) =      -93.45110343


--------------------------------------------------------------------------------------------------------




--------------------------------------- Iteration      1(  29)  ---------------------------------------


    POTLOK:  cpu time    0.3280: real time    0.3440
    SETDIJ:  cpu time    0.0080: real time    0.0072
     EDDAV:  cpu time    8.0320: real time    8.0339
       DOS:  cpu time    0.0040: real time    0.0007
    CHARGE:  cpu time    0.1480: real time    0.1479
    MIXING:  cpu time    0.0280: real time    0.0305
    --------------------------------------------
      LOOP:  cpu time    8.5480: real time    8.5642

 eigenvalue-minimisations  :  1456
 total energy-change (2. order) :-0.2471472E-01  (-0.6632641E-04)
 number of electron     363.0001605 magnetization       1.1043698
 augmentation part      232.5662500 magnetization       0.1922555

 Broyden mixing:
  rms(total) = 0.30135E-02    rms(broyden)= 0.30128E-02
  rms(prec ) = 0.37943E-02
  weight for this iteration     100.00

 eigenvalues of (default mixing * dielectric matrix)
  average eigenvalue GAMMA=   1.5754
 11.1922  5.4350  3.4173  2.6964  1.5124  1.4006  1.4006  1.0175  1.0175  0.9200
  0.9200  0.8940  0.6788  0.6788  0.6346  0.5415  0.5415  0.3370  0.4765  0.4765
  0.3747  0.4091  0.4091  0.4285

 Free energy of the ion-electron system (eV)
  ---------------------------------------------------
  alpha Z        PSCENC =        66.33398224
  Ewald energy   TEWEN  =    103510.39282293
  -Hartree energ DENC   =   -145248.59765448
  -exchange      EXHF   =         0.00000000
  -V(xc)+E(xc)   XCENC  =      1462.09541776
  PAW double counting   =     42750.55611626   -46292.65832389
  entropy T*S    EENTRO =         0.00000000
  eigenvalues    EBANDS =     -2242.47247267
  atomic energy  EATOM  =     45900.87429371
  Solvation  Ediel_sol  =         0.00000000
  ---------------------------------------------------
  free energy    TOTEN  =       -93.47581814 eV

  energy without entropy =      -93.47581814  energy(sigma->0) =      -93.47581814


--------------------------------------------------------------------------------------------------------




--------------------------------------- Iteration      1(  30)  ---------------------------------------


    POTLOK:  cpu time    0.3280: real time    0.3404
    SETDIJ:  cpu time    0.0080: real time    0.0075
     EDDAV:  cpu time    7.7600: real time    7.7571
       DOS:  cpu time    0.0000: real time    0.0006
    CHARGE:  cpu time    0.1480: real time    0.1479
    MIXING:  cpu time    0.0320: real time    0.0324
    --------------------------------------------
      LOOP:  cpu time    8.2760: real time    8.2860

 eigenvalue-minimisations  :  1392
 total energy-change (2. order) :-0.9216246E-02  (-0.2770671E-04)
 number of electron     363.0001605 magnetization       1.0723498
 augmentation part      232.5637108 magnetization       0.1618913

 Broyden mixing:
  rms(total) = 0.21800E-02    rms(broyden)= 0.21795E-02
[...]
  0.000   0.000  -0.000   0.000  -0.000  -0.000  -0.000   0.000  -0.000   0.000  -0.001  -0.000  -0.000  -0.000   0.000   0.000
  0.000   0.000  -0.000  -0.000  -0.000  -0.000  -0.000   0.000   0.000   0.000  -0.001  -0.000  -0.000  -0.000   0.000   0.000
 -0.001  -0.003   0.004   0.002   0.002   0.000   0.001  -0.001  -0.001  -0.001   0.007   0.000   0.005   0.003  -0.003  -0.000
 -0.000  -0.001   0.001   0.001   0.000   0.000   0.000  -0.000  -0.000  -0.000   0.000   0.000   0.000   0.000  -0.000   0.000
 -0.001  -0.002   0.002   0.001   0.001   0.000   0.001  -0.001  -0.000  -0.000   0.005   0.000   0.002   0.002  -0.001  -0.000
 -0.000  -0.001   0.003   0.001   0.001   0.000   0.001  -0.001  -0.000  -0.000   0.003   0.000   0.002   0.001  -0.001  -0.000
  0.001   0.001  -0.001  -0.000  -0.001  -0.000  -0.000   0.000   0.000   0.000  -0.003  -0.000  -0.001  -0.001   0.001   0.000
 -0.000  -0.000  -0.000   0.000   0.000   0.000  -0.000   0.000   0.000   0.000  -0.000   0.000  -0.000  -0.000   0.000   0.000
  0.000  -0.000   0.000  -0.000   0.000  -0.000  -0.000   0.000   0.000   0.000  -0.000   0.000  -0.000   0.000   0.000   0.000
  0.000   0.000   0.000   0.000  -0.000  -0.000   0.000  -0.000  -0.000   0.000   0.000  -0.000   0.000   0.000  -0.000  -0.000


------------------------ aborting loop because EDIFF is reached ----------------------------------------


 


 total charge     
 
# of ion       s       p       d       tot
------------------------------------------
    1        0.457   0.253   9.227   9.937
    2        0.479   0.133   9.282   9.894
    3        0.423   0.366   9.219  10.007
    4        0.461   0.221   9.241   9.922
    5        0.449   0.261   9.217   9.927
    6        0.444   0.269   9.238   9.951
    7        0.456   0.184   9.248   9.888
    8        0.461   0.260   9.230   9.951
    9        0.459   0.206   9.243   9.908
   10        0.427   0.271   9.240   9.938
   11        0.448   0.286   9.220   9.954
   12        0.488   0.137   9.272   9.897
   13        0.466   0.299   9.212   9.977
   14        0.453   0.355   9.186   9.994
   15        0.487   0.247   9.210   9.943
   16        0.457   0.269   9.230   9.956
   17        0.458   0.189   9.251   9.898
   18        0.445   0.245   9.221   9.911
   19        0.474   0.387   9.202  10.063
   20        0.486   0.103   9.298   9.887
   21        0.445   0.227   9.224   9.896
   22        0.511   0.067   9.299   9.876
   23        0.474   0.191   9.244   9.909
   24        0.466   0.138   9.285   9.889
   25        0.451   0.198   9.255   9.905
   26        0.446   0.175   9.259   9.880
   27        0.437   0.252   9.244   9.933
   28        0.476   0.419   9.199  10.094
   29        0.459   0.351   9.197  10.008
   30        0.463   0.153   9.269   9.886
   31        0.464   0.382   9.191  10.037
   32        0.428   0.303   9.205   9.936
   33        0.437   0.302   9.219   9.958
--------------------------------------------------
tot         15.136   8.098 304.776 328.011
 


 magnetization (x)
 
# of ion       s       p       d       tot
------------------------------------------
    1        0.003   0.002   0.004   0.009
    2       -0.001   0.003   0.008   0.010
    3        0.002   0.003   0.015   0.021
    4        0.000  -0.000   0.003   0.003
    5        0.002  -0.000  -0.000   0.001
    6       -0.000   0.005   0.007   0.013
    7        0.016   0.006   0.004   0.026
    8        0.005   0.001   0.007   0.012
    9        0.012   0.004   0.005   0.021
   10        0.000   0.004  -0.001   0.003
   11        0.000   0.010  -0.000   0.010
   12       -0.001   0.002   0.002   0.003
   13        0.003   0.001   0.009   0.013
   14        0.006   0.000   0.015   0.022
   15        0.014   0.014   0.004   0.033
   16       -0.000   0.001   0.003   0.004
   17       -0.000   0.006  -0.001   0.005
   18        0.006   0.006   0.010   0.022
   19        0.007   0.000   0.007   0.014
   20        0.003   0.002   0.007   0.012
   21        0.004   0.002   0.002   0.008
   22       -0.001  -0.000  -0.000  -0.001
   23        0.038   0.014   0.007   0.059
   24        0.002   0.004   0.005   0.010
   25        0.019   0.004   0.003   0.026
   26        0.010   0.005   0.006   0.020
   27        0.001   0.014   0.003   0.018
   28        0.001   0.002   0.014   0.017
   29        0.007   0.003   0.005   0.015
   30        0.003   0.004   0.001   0.008
   31       -0.000   0.006   0.007   0.014
   32       -0.000   0.010   0.005   0.014
   33        0.002   0.001   0.008   0.011
--------------------------------------------------
tot          0.162   0.138   0.174   0.474
 
    CHARGE:  cpu time    0.1560: real time    0.1557
    FORLOC:  cpu time    0.0240: real time    0.0216
    FORNL :  cpu time    3.3840: real time    3.3846
    STRESS:  cpu time    5.7000: real time    5.6991
    FORCOR:  cpu time    0.3200: real time    0.3231
    FORHAR:  cpu time    0.0560: real time    0.0538
    MIXING:  cpu time    0.0600: real time    0.0598
    OFIELD:  cpu time    0.0000: real time    0.0001

  FORCE on cell =-STRESS in cart. coord.  units (eV):
  Direction    XX          YY          ZZ          XY          YZ          ZX
  --------------------------------------------------------------------------------------
  Alpha Z    66.33398    66.33398    66.33398
  Ewald   39985.63809 32757.65051 30767.04213  8824.66591   759.26237 10050.21330
  Hartree 53651.00840 46851.83145 44739.28672  8356.49418   740.34266  9379.39563
  E(xc)   -2118.17735 -2118.91174 -2118.36641     0.44066     0.05503     0.94198
  Local  -96901.01185-82877.17942-78760.74042-17180.22035 -1500.05545-19426.74551
  n-local  -770.69052  -772.02268  -772.44024     1.57899    -0.09569     2.70288
  augment  3103.27979  3106.18859  3099.65200    -1.29717     0.02498    -2.93315
  Kinetic  2974.04312  2977.49923  2970.53142    -1.75601     0.26468    -3.51408
  Fock        0.00000     0.00000     0.00000     0.00000     0.00000     0.00000
  -------------------------------------------------------------------------------------
  Total      -9.57635    -8.61008    -8.70082    -0.09379    -0.20143     0.06106
  in kB      -1.27793    -1.14898    -1.16109    -0.01252    -0.02688     0.00815
  external pressure =       -1.20 kB  Pullay stress =        0.00 kB


 VOLUME and BASIS-vectors are now :
 -----------------------------------------------------------------------------
  energy-cutoff  :      295.45
  volume of cell :    12006.16
      direct lattice vectors                 reciprocal lattice vectors
    22.898200000  0.000000000  0.000000000     0.043671555  0.000000000  0.000000000
     0.000000000 22.898200000  0.000000000     0.000000000  0.043671555  0.000000000
     0.000000000  0.000000000 22.898200000     0.000000000  0.000000000  0.043671555

  length of vectors
    22.898200000 22.898200000 22.898200000     0.043671555  0.043671555  0.043671555


 FORCES acting on ions
    electron-ion (+dipol)            ewald-force                    non-local-force                 convergence-correction
 -----------------------------------------------------------------------------------------------
   -.538E+01 0.182E+04 0.798E+03   0.459E+01 -.182E+04 -.796E+03   0.774E+00 -.362E+01 -.250E+01   -.607E-04 0.175E-03 -.642E-04
   0.101E+04 0.119E+04 -.127E+04   -.101E+04 -.118E+04 0.127E+04   -.532E+01 -.734E+01 0.631E+01   -.767E-04 -.227E-03 0.128E-03
   -.180E+03 0.264E+03 -.314E+03   0.180E+03 -.264E+03 0.313E+03   0.871E+00 -.555E+00 0.122E+01   0.770E-04 -.941E-04 -.793E-04
   -.111E+04 0.491E+03 -.133E+04   0.111E+04 -.486E+03 0.133E+04   0.289E+01 -.422E+01 0.323E+01   0.519E-04 0.969E-04 -.539E-04
   -.100E+04 -.949E+03 -.103E+04   0.100E+04 0.948E+03 0.103E+04   -.183E+00 0.196E+01 0.195E+01   -.376E-04 0.409E-04 -.928E-04
   -.309E+03 -.159E+04 0.108E+04   0.309E+03 0.159E+04 -.108E+04   -.475E+00 0.346E+01 -.255E+01   0.219E-04 -.277E-04 0.238E-04
   0.664E+03 -.192E+04 -.154E+03   -.661E+03 0.191E+04 0.152E+03   -.331E+01 0.685E+01 0.153E+01   0.385E-04 -.623E-04 0.376E-04
   0.965E+03 -.114E+04 -.126E+04   -.964E+03 0.114E+04 0.126E+04   -.775E+00 0.309E+01 0.328E+01   0.790E-04 0.290E-03 -.135E-03
   0.255E+03 0.669E+03 0.184E+04   -.256E+03 -.667E+03 -.183E+04   0.765E+00 -.187E+01 -.633E+01   -.272E-04 0.195E-04 0.320E-03
   0.738E+03 -.831E+03 0.153E+04   -.738E+03 0.829E+03 -.152E+04   -.285E+00 0.208E+01 -.480E+01   0.174E-04 -.142E-03 0.213E-03
   0.104E+04 -.126E+03 -.163E+04   -.103E+04 0.126E+03 0.163E+04   -.236E+01 0.736E+00 0.395E+01   0.921E-04 0.416E-04 0.784E-04
   0.131E+04 0.263E+03 0.139E+04   -.130E+04 -.262E+03 -.138E+04   -.804E+01 -.101E+01 -.680E+01   -.233E-04 0.109E-03 0.161E-03
   -.170E+04 0.302E+03 -.879E+02   0.169E+04 -.302E+03 0.876E+02   0.179E+01 -.434E-02 0.311E+00   0.193E-03 0.292E-03 -.130E-03
   0.633E+03 0.148E+04 -.259E+03   -.633E+03 -.149E+04 0.257E+03   -.233E+00 0.976E+00 0.190E+01   -.567E-04 -.398E-04 -.197E-04
   -.126E+04 0.127E+04 -.824E+03   0.126E+04 -.127E+04 0.823E+03   0.207E+01 -.286E+01 0.114E+01   -.353E-04 -.168E-03 0.830E-04
   -.174E+04 -.836E+03 0.191E+03   0.174E+04 0.835E+03 -.190E+03   0.424E+01 0.170E+01 -.685E+00   -.798E-04 -.476E-04 -.130E-03
   0.196E+04 -.341E+03 0.256E+03   -.195E+04 0.339E+03 -.256E+03   -.648E+01 0.253E+01 0.470E+00   0.315E-03 -.922E-04 -.128E-03
   -.144E+04 0.108E+04 0.657E+03   0.144E+04 -.107E+04 -.657E+03   0.332E+01 -.357E+01 -.978E+00   -.598E-04 0.151E-03 -.168E-03
   -.219E+03 -.968E+03 -.657E+03   0.219E+03 0.967E+03 0.658E+03   -.413E+00 0.118E+01 -.124E+01   0.179E-04 0.394E-03 -.711E-04
   -.121E+04 -.614E+03 0.132E+04   0.120E+04 0.613E+03 -.131E+04   0.679E+01 0.101E+01 -.102E+02   0.386E-04 0.487E-04 -.263E-04
   -.245E+00 -.225E+03 -.184E+04   0.560E+00 0.223E+03 0.183E+04   -.306E+00 0.207E+01 0.413E+01   -.934E-06 0.668E-04 0.498E-04
   -.930E+03 -.394E+03 -.120E+04   0.924E+03 0.390E+03 0.119E+04   0.635E+01 0.392E+01 0.938E+01   -.161E-03 0.149E-03 -.165E-03
   -.566E+03 0.197E+04 -.215E+03   0.564E+03 -.197E+04 0.215E+03   0.163E+01 -.661E+01 -.231E+00   -.359E-04 0.898E-04 -.100E-04
   -.933E+03 0.788E+03 0.161E+04   0.926E+03 -.786E+03 -.160E+04   0.735E+01 -.146E+01 -.763E+01   0.142E-03 0.238E-04 0.539E-04
   0.185E+04 0.575E+03 -.619E+03   -.184E+04 -.574E+03 0.616E+03   -.650E+01 -.152E+01 0.304E+01   0.147E-03 -.175E-05 -.250E-03
   0.145E+04 -.147E+04 0.189E+03   -.144E+04 0.146E+04 -.189E+03   -.630E+01 0.539E+01 0.598E+00   0.182E-03 0.211E-04 -.276E-05
   -.733E+02 0.119E+04 -.159E+04   0.715E+02 -.118E+04 0.159E+04   0.187E+01 -.234E+01 0.448E+01   0.679E-04 0.368E-04 -.226E-04
   0.110E+04 -.245E+03 -.163E+03   -.110E+04 0.245E+03 0.164E+03   -.366E-02 0.557E-01 -.119E+01   -.130E-03 0.966E-04 -.320E-03
   0.268E+03 -.109E+04 0.102E+04   -.267E+03 0.109E+04 -.102E+04   -.897E+00 0.120E+01 0.482E+00   0.203E-04 0.101E-03 -.230E-04
   -.504E+03 -.185E+04 -.541E+03   0.503E+03 0.184E+04 0.537E+03   0.132E+01 0.780E+01 0.418E+01   -.852E-04 -.134E-03 -.545E-04
   -.215E+03 0.105E+03 0.124E+04   0.215E+03 -.103E+03 -.124E+04   -.326E+00 -.210E+01 0.604E-01   0.106E-04 0.285E-04 -.102E-03
   -.106E+04 -.106E+03 0.125E+04   0.106E+04 0.107E+03 -.125E+04   0.146E+01 -.655E+00 -.202E+01   0.467E-04 0.117E-03 -.123E-03
   0.122E+04 0.123E+04 0.628E+03   -.121E+04 -.122E+04 -.626E+03   -.223E+01 -.104E+01 -.133E+01   0.758E-04 0.208E-03 -.735E-04
 -----------------------------------------------------------------------------------------------
   0.761E+00 -.514E+01 -.309E+01   0.909E-12 0.114E-11 0.227E-12   -.938E+00 0.521E+01 0.319E+01   0.765E-03 0.156E-02 -.109E-02
 
 
 POSITION                                       TOTAL-FORCE (eV/Angst)
 -----------------------------------------------------------------------------------
     10.99905      8.38288      9.77419        -0.006325     -0.005304     -0.005947
      8.90474      8.61329     13.96412        -0.002207      0.004798      0.001562
     11.69225     11.01853     11.95226         0.019168      0.001418      0.001740
     14.50218     11.24176     14.61434        -0.023380     -0.000123     -0.000960
     14.38884     13.53552     13.77944        -0.031664     -0.008739      0.018952
     12.83395     14.66022     10.19010        -0.002052     -0.002090     -0.001546
     10.86154     15.12216     11.61436         0.047801      0.010112     -0.011695
     10.17573     13.07499     12.79364         0.004461     -0.002467      0.009767
      9.99235      9.71834      7.79579        -0.013391     -0.003118     -0.013850
      9.15286     11.96013      8.87216        -0.014899     -0.011776      0.007975
      9.66845     10.87014     13.60955         0.038909      0.008358      0.001240
      7.61627     10.41290      7.89349        -0.012531     -0.001686      0.001951
     14.22405     11.52698     12.19707        -0.001209     -0.006537      0.015952
      9.97826      9.00176     11.85985        -0.032604     -0.006979      0.014741
     13.57344      9.47862     13.13942        -0.000111     -0.004137     -0.025998
     14.77453     13.79111     11.38755         0.007560      0.011909      0.004801
      7.15392     11.43400     10.17068         0.002582     -0.001791      0.008040
     13.26476      9.67309     10.59019         0.004734      0.004338     -0.011522
     12.50612     13.35712     12.30586         0.019784      0.020907     -0.005644
     14.72815     13.77892      9.01040        -0.010059     -0.013437      0.003161
     12.16916     11.63974     14.15786         0.014434     -0.007201     -0.006206
     15.51512     13.02886     15.78323        -0.007181     -0.002663     -0.000925
     12.14821      7.91605     11.92081        -0.010216     -0.001654     -0.012734
     12.48481      9.37141      8.17004        -0.027760      0.006919      0.009161
      7.71465      9.90278     12.15942        -0.004436     -0.007901      0.000651
      8.66673     13.66103     10.78514        -0.029323      0.004027      0.003499
     11.33726      9.17518     13.91188         0.040471     -0.001288     -0.004336
      9.32181     11.41133     11.25533         0.011947      0.002892      0.007122
     10.93617     13.06664     10.30743        -0.030002      0.003067      0.001004
     13.35516     15.56546     12.40460        -0.000710     -0.003214     -0.018744
     11.22672     10.78158      9.57308         0.009682      0.007444      0.007616
     13.25514     12.14999     10.04610         0.018782     -0.001164     -0.006319
      8.69793      9.49779      9.83091         0.019746      0.007080      0.007490
 -----------------------------------------------------------------------------------
    total drift:                               -0.175818      0.076646      0.099978


--------------------------------------------------------------------------------------------------------



  FREE ENERGIE OF THE ION-ELECTRON SYSTEM (eV)
  ---------------------------------------------------
  free  energy   TOTEN  =       -93.50779241 eV

  energy  without entropy=      -93.50779241  energy(sigma->0) =      -93.50779241
 


--------------------------------------------------------------------------------------------------------


    POTLOK:  cpu time    0.3360: real time    0.3353


--------------------------------------------------------------------------------------------------------




--------------------------------------------------------------------------------------------------------


  
 reached required accuracy - stopping structural energy minimisation
     LOOP+:  cpu time  338.7080: real time  341.4400
    4ORBIT:  cpu time    0.0000: real time    0.0000
 


 total charge     
 
# of ion       s       p       d       tot
------------------------------------------
    1        0.457   0.253   9.227   9.937
    2        0.479   0.133   9.282   9.894
    3        0.423   0.366   9.219  10.007
    4        0.461   0.221   9.241   9.922
    5        0.449   0.261   9.217   9.927
    6        0.444   0.269   9.238   9.951
    7        0.456   0.184   9.248   9.888
    8        0.461   0.260   9.230   9.951
    9        0.459   0.206   9.243   9.908
   10        0.427   0.271   9.240   9.938
   11        0.448   0.286   9.220   9.954
   12        0.488   0.137   9.272   9.897
   13        0.466   0.299   9.212   9.977
   14        0.453   0.355   9.186   9.994
   15        0.487   0.247   9.210   9.943
   16        0.457   0.269   9.230   9.956
   17        0.458   0.189   9.251   9.898
   18        0.445   0.245   9.221   9.911
   19        0.474   0.387   9.202  10.063
   20        0.486   0.103   9.298   9.887
   21        0.445   0.227   9.224   9.896
   22        0.511   0.067   9.299   9.876
   23        0.474   0.191   9.244   9.909
   24        0.466   0.138   9.285   9.889
   25        0.451   0.198   9.255   9.905
   26        0.446   0.175   9.259   9.880
   27        0.437   0.252   9.244   9.933
   28        0.476   0.419   9.199  10.094
   29        0.459   0.351   9.197  10.008
   30        0.463   0.153   9.269   9.886
   31        0.464   0.382   9.191  10.037
   32        0.428   0.303   9.205   9.936
   33        0.437   0.302   9.219   9.958
--------------------------------------------------
tot         15.136   8.098 304.776 328.011
 


 magnetization (x)
 
# of ion       s       p       d       tot
------------------------------------------
    1        0.003   0.002   0.004   0.009
    2       -0.001   0.003   0.008   0.010
    3        0.002   0.003   0.015   0.021
    4        0.000  -0.000   0.003   0.003
    5        0.002  -0.000  -0.000   0.001
    6       -0.000   0.005   0.007   0.013
    7        0.016   0.006   0.004   0.026
    8        0.005   0.001   0.007   0.012
    9        0.012   0.004   0.005   0.021
   10        0.000   0.004  -0.001   0.003
   11        0.000   0.010  -0.000   0.010
   12       -0.001   0.002   0.002   0.003
   13        0.003   0.001   0.009   0.013
   14        0.006   0.000   0.015   0.022
   15        0.014   0.014   0.004   0.033
   16       -0.000   0.001   0.003   0.004
   17       -0.000   0.006  -0.001   0.005
   18        0.006   0.006   0.010   0.022
   19        0.007   0.000   0.007   0.014
   20        0.003   0.002   0.007   0.012
   21        0.004   0.002   0.002   0.008
   22       -0.001  -0.000  -0.000  -0.001
   23        0.038   0.014   0.007   0.059
   24        0.002   0.004   0.005   0.010
   25        0.019   0.004   0.003   0.026
   26        0.010   0.005   0.006   0.020
   27        0.001   0.014   0.003   0.018
   28        0.001   0.002   0.014   0.017
   29        0.007   0.003   0.005   0.015
   30        0.003   0.004   0.001   0.008
   31       -0.000   0.006   0.007   0.014
   32       -0.000   0.010   0.005   0.014
   33        0.002   0.001   0.008   0.011
--------------------------------------------------
tot          0.162   0.138   0.174   0.474
 

 total amount of memory used by VASP MPI-rank0    75800. kBytes
=======================================================================

   base      :      30000. kBytes
   nonl-proj :       4241. kBytes
   fftplans  :       7880. kBytes
   grid      :      20041. kBytes
   one-center:         46. kBytes
   wavefun   :      13592. kBytes
 
  
  
 General timing and accounting informations for this job:
 ========================================================
  
                  Total CPU time used (sec):      345.292
                            User time (sec):      342.760
                          System time (sec):        2.532
                         Elapsed time (sec):      347.984
  
                   Maximum memory used (kb):       39980.
                   Average memory used (kb):           0.
  
                          Minor page faults:        16033
                          Major page faults:           25
                 Voluntary context switches:          527
