 vasp.5.4.4.18Apr17-6-g9f103f2a35 (build Jan 23 2020 13:04:52) gamma-only       
  
 executed on           IFC91_ompi date 2020.12.30  13:54:41
 running on   44 total cores
 distrk:  each k-point on   44 cores,    1 groups
 distr:  one band on NCORES_PER_BAND=  11 cores,    4 groups


--------------------------------------------------------------------------------------------------------


 INCAR:
 POTCAR:    PAW_PBE Cu 22Jun2005                  
 POTCAR:    PAW_PBE Cu 22Jun2005                  
   VRHFIN =Cu: d10 p1                                                           
   LEXCH  = PE                                                                  
   EATOM  =  1390.9808 eV,  102.2342 Ry                                         
                                                                                
   TITEL  = PAW_PBE Cu 22Jun2005                                                
   LULTRA =        F    use ultrasoft PP ?                                      
   IUNSCR =        1    unscreen: 0-lin 1-nonlin 2-no                           
   RPACOR =    2.000    partial core radius                                     
   POMASS =   63.546; ZVAL   =   11.000    mass and valenz                      
   RCORE  =    2.300    outmost cutoff radius                                   
   RWIGS  =    2.200; RWIGS  =    1.164    wigner-seitz radius (au A)           
   ENMAX  =  295.446; ENMIN  =  221.585 eV                                      
   ICORE  =        3    local potential                                         
   LCOR   =        T    correct aug charges                                     
   LPAW   =        T    paw PP                                                  
   EAUG   =  586.980                                                            
   DEXC   =    0.000                                                            
   RMAX   =    2.344    core radius for proj-oper                               
   RAUG   =    1.300    factor for augmentation sphere                          
   RDEP   =    2.302    radius for radial grids                                 
   RDEPT  =    1.771    core radius for aug-charge                              
                                                                                
   Atomic configuration                                                         
    9 entries                                                                   
     n  l   j            E        occ.                                          
     1  0  0.50     -8850.2468   2.0000                                         
     2  0  0.50     -1062.3498   2.0000                                         
     2  1  1.50      -916.8226   6.0000                                         
     3  0  0.50      -114.6929   2.0000                                         
     3  1  1.50       -72.1325   6.0000                                         
     3  2  2.50        -5.0394  10.0000                                         
     4  0  0.50        -4.6097   1.0000                                         
     4  1  0.50        -4.0817   0.0000                                         
     4  3  2.50        -1.3606   0.0000                                         
   Description                                                                  
     l       E           TYP  RCUT    TYP  RCUT                                 
     2     -5.0393973     23  2.200                                             
     2     10.8846608     23  2.200                                             
     0     -4.6097109     23  2.200                                             
     0      8.2520465     23  2.200                                             
     1     -2.7211652     23  2.200                                             
     1     21.7055443     23  2.200                                             
     3      2.7211652     23  2.300                                             
  local pseudopotential read in
  partial core-charges read in
  partial kinetic energy density read in
  atomic valenz-charges read in
  non local Contribution for L=           2  read in
    real space projection operators read in
  non local Contribution for L=           2  read in
    real space projection operators read in
  non local Contribution for L=           0  read in
    real space projection operators read in
  non local Contribution for L=           0  read in
    real space projection operators read in
  non local Contribution for L=           1  read in
    real space projection operators read in
  non local Contribution for L=           1  read in
    real space projection operators read in
    PAW grid and wavefunctions read in
 
   number of l-projection  operators is LMAX  =           6
   number of lm-projection operators is LMMAX =          18
 

 ----------------------------------------------------------------------------- 
|                                                                             |
|  ADVICE TO THIS USER RUNNING 'VASP/VAMP'   (HEAR YOUR MASTER'S VOICE ...):  |
|                                                                             |
|      You have a (more or less) 'large supercell' and for larger cells       |
|      it might be more efficient to use real space projection opertators     |
|      So try LREAL= Auto  in the INCAR   file.                               |
|      Mind:          For very  accurate calculation you might also keep the  |
|      reciprocal projection scheme          (i.e. LREAL=.FALSE.)             |
|                                                                             |
 ----------------------------------------------------------------------------- 

  PAW_PBE Cu 22Jun2005                  :
 energy of atom  1       EATOM=-1390.9808
 kinetic energy error for atom=    0.0452 (will be added to EATOM!!)
 
 
 POSCAR: unknown system                          
  positions in direct lattice
  No initial velocities read in
 exchange correlation table for  LEXCH =        8
   RHO(1)=    0.500       N(1)  =     2000
   RHO(2)=  100.500       N(2)  =     4000
 


--------------------------------------------------------------------------------------------------------


 ion  position               nearest neighbor table
   1  0.366  0.566  0.530-   4 2.38   5 2.41  19 2.46  24 2.49
   2  0.510  0.665  0.524-  12 2.39  15 2.43  18 2.45  21 2.46  19 2.55  32 2.62
   3  0.658  0.555  0.555-   9 2.38  15 2.42  10 2.47  23 2.52   7 2.71  21 2.76
   4  0.405  0.505  0.606-   6 2.37   1 2.38  29 2.40  16 2.45  24 2.45  19 2.48  26 2.56
   5  0.414  0.514  0.452-  30 2.38  28 2.39   1 2.41  24 2.48  33 2.50  18 2.57  11 2.66  19 2.67

   6  0.341  0.427  0.629-   4 2.37  25 2.39  16 2.50  24 2.52
   7  0.623  0.480  0.470-  20 2.42   9 2.44  30 2.48  10 2.49  27 2.68   3 2.71  15 2.73  22 2.73

   8  0.527  0.396  0.451-  27 2.38  30 2.43  33 2.48  31 2.50  13 2.51  22 2.52  26 2.64
   9  0.570  0.500  0.561-  29 2.37   3 2.38  27 2.38  23 2.43   7 2.44  26 2.47  15 2.48  21 2.51
                            19 2.65  30 2.67
  10  0.669  0.577  0.449-  15 2.39  20 2.45  17 2.46   3 2.47   7 2.49
  11  0.481  0.537  0.359-  33 2.37  18 2.43  17 2.46  30 2.50  22 2.55   5 2.66
  12  0.476  0.713  0.438-   2 2.39  32 2.39  18 2.44
  13  0.419  0.388  0.467-  33 2.38  14 2.38  28 2.39  25 2.41  24 2.50   8 2.51  31 2.51  26 2.55

  14  0.410  0.287  0.490-  13 2.38  25 2.41  31 2.44
  15  0.576  0.587  0.496-  32 2.38  10 2.39  21 2.42   3 2.42   2 2.43   9 2.48  30 2.51  17 2.51
                            18 2.59  19 2.64   7 2.73
  16  0.449  0.412  0.634-  26 2.37   4 2.45  25 2.46   6 2.50  29 2.58
  17  0.581  0.565  0.388-  20 2.43  32 2.43  10 2.46  11 2.46  22 2.46  15 2.51  30 2.58  18 2.79

  18  0.478  0.606  0.441-  11 2.43  12 2.44   2 2.45  32 2.48  19 2.52  30 2.55   5 2.57  15 2.59
                            17 2.79
  19  0.473  0.561  0.541-   1 2.46   4 2.48  21 2.50  18 2.52   2 2.55  30 2.56  26 2.56  29 2.64
                            15 2.64   9 2.65   5 2.67
  20  0.664  0.500  0.374-   7 2.42  17 2.43  10 2.45  22 2.48
  21  0.556  0.602  0.599-  23 2.37  15 2.42   2 2.46  19 2.50   9 2.51  29 2.59   3 2.76
  22  0.562  0.461  0.369-  30 2.44  17 2.46  20 2.48   8 2.52  33 2.54  11 2.55   7 2.73
  23  0.613  0.534  0.653-  21 2.37   9 2.43   3 2.52  29 2.54
  24  0.356  0.457  0.524-   4 2.45   5 2.48   1 2.49  13 2.50  25 2.52   6 2.52  28 2.54
  25  0.387  0.359  0.563-   6 2.39  14 2.41  13 2.41  31 2.43  16 2.46  24 2.52
  26  0.477  0.448  0.541-  16 2.37  31 2.46  30 2.47   9 2.47  13 2.55   4 2.56  19 2.56  27 2.58
                             8 2.64  29 2.74
  27  0.578  0.398  0.542-   8 2.38   9 2.38  31 2.42  26 2.58   7 2.68
  28  0.347  0.443  0.414-  13 2.39   5 2.39  24 2.54  33 2.54
  29  0.504  0.510  0.640-   9 2.37   4 2.40  23 2.54  16 2.58  21 2.59  19 2.64  26 2.74
  30  0.517  0.502  0.456-   5 2.38   8 2.43  22 2.44  26 2.47   7 2.48  11 2.50  15 2.51  18 2.55
                            19 2.56  17 2.58  33 2.64   9 2.67
  31  0.489  0.341  0.538-  27 2.42  25 2.43  14 2.44  26 2.46   8 2.50  13 2.51
  32  0.569  0.664  0.426-  15 2.38  12 2.39  17 2.43  18 2.48   2 2.62
  33  0.454  0.439  0.383-  11 2.37  13 2.38   8 2.48   5 2.50  22 2.54  28 2.54  30 2.64
 
  LATTYP: Found a simple cubic cell.
 ALAT       =    22.8276690000
  
  Lattice vectors:
  
 A1 = (  22.8276690000,   0.0000000000,   0.0000000000)
 A2 = (   0.0000000000,  22.8276690000,   0.0000000000)
 A3 = (   0.0000000000,   0.0000000000,  22.8276690000)


Analysis of symmetry for initial positions (statically):
=====================================================================
 Subroutine PRICEL returns:
 Original cell was already a primitive cell.
 

 Routine SETGRP: Setting up the symmetry group for a 
 simple cubic supercell.


 Subroutine GETGRP returns: Found  1 space group operations
 (whereof  1 operations were pure point group operations)
 out of a pool of 48 trial point group operations.


The static configuration has the point symmetry C_1 .


Analysis of symmetry for dynamics (positions and initial velocities):
=====================================================================
 Subroutine PRICEL returns:
 Original cell was already a primitive cell.
 

 Routine SETGRP: Setting up the symmetry group for a 
 simple cubic supercell.


 Subroutine GETGRP returns: Found  1 space group operations
 (whereof  1 operations were pure point group operations)
 out of a pool of 48 trial point group operations.


The dynamic configuration has the point symmetry C_1 .


Analysis of structural, dynamic, and magnetic symmetry:
=====================================================================
 Subroutine PRICEL returns:
 Original cell was already a primitive cell.
 

 Routine SETGRP: Setting up the symmetry group for a 
 simple cubic supercell.


 Subroutine GETGRP returns: Found  1 space group operations
 (whereof  1 operations were pure point group operations)
 out of a pool of 48 trial point group operations.


The magnetic configuration has the point symmetry C_1 .


 Subroutine INISYM returns: Found  1 space group operations
 (whereof  1 operations are pure point group operations),
 and found     1 'primitive' translations

 
 
 KPOINTS: Gamma-point only                        
  k-points in reciprocal lattice
Space group operators:
 irot       det(A)        alpha          n_x          n_y          n_z        tau_x        tau_y        tau_z
    1     1.000000     0.000000     1.000000     0.000000     0.000000     0.000000     0.000000     0.000000


--------------------------------------------------------------------------------------------------------




 Dimension of arrays:
   k-points           NKPTS =      1   k-points in BZ     NKDIM =      1   number of bands    NBANDS=    268
   number of dos      NEDOS =    301   number of ions     NIONS =     33
   non local maximal  LDIM  =      6   non local SUM 2l+1 LMDIM =     18
   total plane-waves  NPLWV = 884736
   max r-space proj   IRMAX =      1   max aug-charges    IRDMAX=   2354
   dimension x,y,z NGX =    96 NGY =   96 NGZ =   96
   dimension x,y,z NGXF=   192 NGYF=  192 NGZF=  192
   support grid    NGXF=   192 NGYF=  192 NGZF=  192
   ions per type =              33
   NGX,Y,Z   is equivalent  to a cutoff of   6.99,  6.99,  6.99 a.u.
   NGXF,Y,Z  is equivalent  to a cutoff of  13.98, 13.98, 13.98 a.u.

 SYSTEM =  unknown system                          
 POSCAR =  unknown system                          

 Startparameter for this run:
   NWRITE =      2    write-flag & timer
   PREC   = normal    normal or accurate (medium, high low for compatibility)
   ISTART =      0    job   : 0-new  1-cont  2-samecut
   ICHARG =      2    charge: 1-file 2-atom 10-const
   ISPIN  =      2    spin polarized calculation?
   LNONCOLLINEAR =      F non collinear calculations
   LSORBIT =      F    spin-orbit coupling
   INIWAV =      1    electr: 0-lowe 1-rand  2-diag
   LASPH  =      F    aspherical Exc in radial PAW
   METAGGA=      F    non-selfconsistent MetaGGA calc.

 Electronic Relaxation 1
   ENCUT  =  295.4 eV  21.71 Ry    4.66 a.u.  31.99 31.99 31.99*2*pi/ulx,y,z
   ENINI  =  295.4     initial cutoff
   ENAUG  =  587.0 eV  augmentation charge cutoff
   NELM   =     60;   NELMIN=  2; NELMDL= -5     # of ELM steps 
   EDIFF  = 0.1E-04   stopping-criterion for ELM
   LREAL  =      F    real-space projection
   NLSPLINE    = F    spline interpolate recip. space projectors
   LCOMPAT=      F    compatible to vasp.4.4
   GGA_COMPAT  = T    GGA compatible to vasp.4.4-vasp.4.6
   LMAXPAW     = -100 max onsite density
   LMAXMIX     =    2 max onsite mixed and CHGCAR
   VOSKOWN=      0    Vosko Wilk Nusair interpolation
   ROPT   =    0.00000
 Ionic relaxation
   EDIFFG = -.1E+00   stopping-criterion for IOM
   NSW    =    101    number of steps for IOM
   NBLOCK =      1;   KBLOCK =    101    inner block; outer block 
   IBRION =      2    ionic relax: 0-MD 1-quasi-New 2-CG
   NFREE  =      1    steps in history (QN), initial steepest desc. (CG)
   ISIF   =      2    stress and relaxation
   IWAVPR =     11    prediction:  0-non 1-charg 2-wave 3-comb
   ISYM   =      2    0-nonsym 1-usesym 2-fastsym
   LCORR  =      T    Harris-Foulkes like correction to forces

   POTIM  = 0.5000    time-step for ionic-motion
   TEIN   =    0.0    initial temperature
   TEBEG  =    0.0;   TEEND  =   0.0 temperature during run
   SMASS  =  -3.00    Nose mass-parameter (am)
   estimated Nose-frequenzy (Omega)   =  0.10E-29 period in steps =****** mass=  -0.119E-25a.u.
   SCALEE = 1.0000    scale energy and forces
   NPACO  =    256;   APACO  = 16.0  distance and # of slots for P.C.
   PSTRESS=    0.0 pullay stress

  Mass of Ions in am
   POMASS =  63.55
  Ionic Valenz
   ZVAL   =  11.00
  Atomic Wigner-Seitz radii
   RWIGS  =  -1.00
  virtual crystal weights 
   VCA    =   1.00
   NELECT =     363.0000    total number of electrons
   NUPDOWN=      -1.0000    fix difference up-down

 DOS related values:
   EMIN   =  10.00;   EMAX   =-10.00  energy-range for DOS
   EFERMI =   0.00
   ISMEAR =     0;   SIGMA  =   0.00  broadening in eV -4-tet -1-fermi 0-gaus

 Electronic relaxation 2 (details)
   IALGO  =     38    algorithm
   LDIAG  =      T    sub-space diagonalisation (order eigenvalues)
   LSUBROT=      F    optimize rotation matrix (better conditioning)
   TURBO    =      0    0=normal 1=particle mesh
   IRESTART =      0    0=no restart 2=restart with 2 vectors
   NREBOOT  =      0    no. of reboots
   NMIN     =      0    reboot dimension
   EREF     =   0.00    reference energy to select bands
   IMIX   =      4    mixing-type and parameters
     AMIX     =   0.40;   BMIX     =  1.00
     AMIX_MAG =   1.60;   BMIX_MAG =  1.00
     AMIN     =   0.10
     WC   =   100.;   INIMIX=   1;  MIXPRE=   1;  MAXMIX= -45

 Intra band minimization:
   WEIMIN = 0.0010     energy-eigenvalue tresh-hold
   EBREAK =  0.93E-08  absolut break condition
   DEPER  =   0.30     relativ break condition  

   TIME   =   0.40     timestep for ELM

  volume/ion in A,a.u.               =     360.47      2432.58
  Fermi-wavevector in a.u.,A,eV,Ry     =   0.511582  0.966750  3.560868  0.261716
  Thomas-Fermi vector in A             =   1.525147
 
 Write flags
   LWAVE        =      F    write WAVECAR
   LDOWNSAMPLE  =      F    k-point downsampling of WAVECAR
   LCHARG       =      F    write CHGCAR
   LVTOT        =      F    write LOCPOT, total local potential
   LVHAR        =      F    write LOCPOT, Hartree potential only
   LELF         =      F    write electronic localiz. function (ELF)
   LORBIT       =     11    0 simple, 1 ext, 2 COOP (PROOUT), +10 PAW based schemes


 Dipole corrections
   LMONO  =      F    monopole corrections only (constant potential shift)
   LDIPOL =      F    correct potential (dipole corrections)
   IDIPOL =      0    1-x, 2-y, 3-z, 4-all directions 
   EPSILON=  1.0000000 bulk dielectric constant

 Exchange correlation treatment:
   GGA     =    PE    GGA type
   LEXCH   =     8    internal setting for exchange type
   VOSKOWN=      0    Vosko Wilk Nusair interpolation
   LHFCALC =     F    Hartree Fock is set to
   LHFONE  =     F    Hartree Fock one center treatment
   AEXX    =    0.0000 exact exchange contribution

 Linear response parameters
   LEPSILON=     F    determine dielectric tensor
   LRPA    =     F    only Hartree local field effects (RPA)
   LNABLA  =     F    use nabla operator in PAW spheres
   LVEL    =     F    velocity operator in full k-point grid
   LINTERFAST=   F  fast interpolation
   KINTER  =     0    interpolate to denser k-point grid
   CSHIFT  =0.1000    complex shift for real part using Kramers Kronig
   OMEGAMAX=  -1.0    maximum frequency
   DEG_THRESHOLD= 0.2000000E-02 threshold for treating states as degnerate
   RTIME   =   -0.100 relaxation time in fs
  (WPLASMAI=    0.000 imaginary part of plasma frequency in eV, 0.658/RTIME)
   DFIELD  = 0.0000000 0.0000000 0.0000000 field for delta impulse in time
 
 Orbital magnetization related:
   ORBITALMAG=     F  switch on orbital magnetization
   LCHIMAG   =     F  perturbation theory with respect to B field
   DQ        =  0.001000  dq finite difference perturbation B field
   LLRAUG    =     F  two centre corrections for induced B field



--------------------------------------------------------------------------------------------------------


 conjugate gradient relaxation of ions
 charge density and potential will be updated during run
 spin polarized calculation
 Variant of blocked Davidson
 Davidson routine will perform the subspace rotation
 perform sub-space diagonalisation
    after iterative eigenvector-optimisation
 modified Broyden-mixing scheme, WC =      100.0
 initial mixing is a Kerker type mixing with AMIX =  0.4000 and BMIX =      1.0000
 Hartree-type preconditioning will be used
 using additional bands           86
 reciprocal scheme for non local part
 use partial core corrections
 calculate Harris-corrections to forces 
   (improved forces if not selfconsistent)
 use gradient corrections 
 use of overlap-Matrix (Vanderbilt PP)
 Gauss-broadening in eV      SIGMA  =   0.00


--------------------------------------------------------------------------------------------------------


  energy-cutoff  :      295.45
  volume of cell :    11895.55
      direct lattice vectors                 reciprocal lattice vectors
    22.827669000  0.000000000  0.000000000     0.043806488  0.000000000  0.000000000
     0.000000000 22.827669000  0.000000000     0.000000000  0.043806488  0.000000000
     0.000000000  0.000000000 22.827669000     0.000000000  0.000000000  0.043806488

  length of vectors
    22.827669000 22.827669000 22.827669000     0.043806488  0.043806488  0.043806488


 
 k-points in units of 2pi/SCALE and weight: Gamma-point only                        
   0.00000000  0.00000000  0.00000000       1.000
 
 k-points in reciprocal lattice and weights: Gamma-point only                        
   0.00000000  0.00000000  0.00000000       1.000
 
 position of ions in fractional coordinates (direct lattice) 
   0.36568223  0.56558897  0.53010045
   0.50967713  0.66489289  0.52447669
   0.65817529  0.55539201  0.55459310
   0.40516960  0.50537994  0.60568737
   0.41394708  0.51402590  0.45163007
   0.34127607  0.42700539  0.62868829
   0.62260475  0.48001731  0.46998582
   0.52729928  0.39629705  0.45101918
   0.57014912  0.50013925  0.56094780
   0.66879570  0.57666383  0.44894516
   0.48095226  0.53671458  0.35922869
   0.47639628  0.71269164  0.43766178
   0.41892654  0.38814708  0.46677351
   0.41023522  0.28690657  0.49021272
   0.57566045  0.58680493  0.49552224
   0.44945143  0.41186910  0.63414024
   0.58089274  0.56543187  0.38775104
   0.47817421  0.60566637  0.44050104
   0.47286277  0.56056320  0.54122826
   0.66364022  0.49981525  0.37429004
   0.55611269  0.60242053  0.59873237
   0.56233660  0.46093515  0.36867623
   0.61256888  0.53361676  0.65257538
   0.35572141  0.45720601  0.52352270
   0.38710694  0.35934513  0.56339024
   0.47701985  0.44834563  0.54107913
   0.57845061  0.39801411  0.54179956
   0.34730896  0.44277512  0.41365899
   0.50423880  0.51032254  0.64035469
   0.51731717  0.50230443  0.45641221
   0.48898778  0.34147914  0.53776910
   0.56862761  0.66423385  0.42577817
   0.45423433  0.43898847  0.38286775
 
 position of ions in cartesian coordinates  (Angst):
   8.34767291 12.91107780 12.10095761
  11.63474082 15.17795481 11.97258028
  15.02460766 12.67830497 12.66006772
   9.24907752 11.53664599 13.82643080
   9.44944693 11.73401310 10.30966175
   7.79053716  9.74753770 14.35148819
  14.21261515 10.95767627 10.72868073
  12.03701343  9.04653788 10.29571655
  13.01517539 11.41701325 12.80513070
  15.26704687 13.16389104 10.24837151
  10.97901900 12.25194278  8.20035363
  10.87501659 16.26908886  9.99079825
   9.56311639  8.86049307 10.65535118
   9.36471381  6.54940821 11.19041371
  13.14098621 13.39538871 11.31161768
  10.25992848  9.40201149 14.47594350
  13.26042719 12.90749157  8.85145240
  10.91560259 13.82595142 10.05561194
  10.79435480 12.79635118 12.35497957
  15.14935928 11.40961709  8.54416914
  12.69475641 13.75185646 13.66766436
  12.83683377 10.52207503  8.41601895
  13.98351963 12.18122677 14.89677477
   8.12029060 10.43694746 11.95080291
   8.83674909  8.20301168 12.86088592
  10.88925124 10.23468564 12.35157528
  13.20467906  9.08573436 12.36802102
   7.92825398 10.10752388  9.44287050
  11.51059642 11.64947403 14.61780491
  11.80914512 11.46643927 10.41882686
  11.16245119  7.79517278 12.27601501
  12.98044287 15.16291047  9.71952313
  10.36911093 10.02108349  8.73997827
 


--------------------------------------------------------------------------------------------------------


 use parallel FFT for orbitals z direction half grid
 k-point  1 :   0.0000 0.0000 0.0000  plane waves:   68530

 maximum and minimum number of plane-waves per node :      6233     6228

 maximum number of plane-waves:     68530
 maximum index in each direction: 
   IXMAX=   31   IYMAX=   31   IZMAX=   31
   IXMIN=  -31   IYMIN=  -31   IZMIN=    0


 parallel 3D FFT for wavefunctions:
    minimum data exchange during FFTs selected (reduces bandwidth)
 parallel 3D FFT for charge:
    minimum data exchange during FFTs selected (reduces bandwidth)


 total amount of memory used by VASP MPI-rank0    75585. kBytes
=======================================================================

   base      :      30000. kBytes
   nonl-proj :       4190. kBytes
   fftplans  :       7878. kBytes
   grid      :      20041. kBytes
   one-center:         46. kBytes
   wavefun   :      13430. kBytes
 
     INWAV:  cpu time    0.0000: real time    0.0003
 Broyden mixing: mesh for mixing (old mesh)
   NGX = 63   NGY = 63   NGZ = 63
  (NGX  =192   NGY  =192   NGZ  =192)
  gives a total of 250047 points

 initial charge density was supplied:
 charge density of overlapping atoms calculated
 number of electron     363.0000000 magnetization      99.0000000
 keeping initial charge density in first step


--------------------------------------------------------------------------------------------------------


 Maximum index for augmentation-charges          198 (set IRDMAX)


--------------------------------------------------------------------------------------------------------


 First call to EWALD:  gamma=   0.078
 Maximum number of real-space cells 3x 3x 3
 Maximum number of reciprocal cells 3x 3x 3

    FEWALD:  cpu time    0.0040: real time    0.0016


--------------------------------------- Iteration      1(   1)  ---------------------------------------


    POTLOK:  cpu time    0.3440: real time    0.3539
    SETDIJ:  cpu time    0.0080: real time    0.0074
     EDDAV:  cpu time    6.3840: real time    6.3953
       DOS:  cpu time    0.0040: real time    0.0004
    --------------------------------------------
      LOOP:  cpu time    6.7400: real time    6.7571

 eigenvalue-minimisations  :  1104
 total energy-change (2. order) : 0.2340573E+04  (-0.7874704E+04)
 number of electron     363.0000000 magnetization      99.0000000
 augmentation part      363.0000000 magnetization      99.0000000

 Free energy of the ion-electron system (eV)
  ---------------------------------------------------
  alpha Z        PSCENC =        66.95074331
  Ewald energy   TEWEN  =    104922.81031962
  -Hartree energ DENC   =   -146792.22197688
  -exchange      EXHF   =         0.00000000
  -V(xc)+E(xc)   XCENC  =      1520.83587965
  PAW double counting   =     40498.16693349   -43985.56393627
  entropy T*S    EENTRO =         0.00000000
  eigenvalues    EBANDS =       208.72117745
  atomic energy  EATOM  =     45900.87429371
  Solvation  Ediel_sol  =         0.00000000
  ---------------------------------------------------
  free energy    TOTEN  =      2340.57343408 eV

  energy without entropy =     2340.57343408  energy(sigma->0) =     2340.57343408


--------------------------------------------------------------------------------------------------------




--------------------------------------- Iteration      1(   2)  ---------------------------------------


     EDDAV:  cpu time    6.4760: real time    6.4887
       DOS:  cpu time    0.0040: real time    0.0003
    --------------------------------------------
      LOOP:  cpu time    6.4800: real time    6.4890

 eigenvalue-minimisations  :  1128
 total energy-change (2. order) :-0.2214344E+04  (-0.1998372E+04)
 number of electron     363.0000000 magnetization      99.0000000
 augmentation part      363.0000000 magnetization      99.0000000

 Free energy of the ion-electron system (eV)
  ---------------------------------------------------
  alpha Z        PSCENC =        66.95074331
  Ewald energy   TEWEN  =    104922.81031962
  -Hartree energ DENC   =   -146792.22197688
  -exchange      EXHF   =         0.00000000
  -V(xc)+E(xc)   XCENC  =      1520.83587965
  PAW double counting   =     40498.16693349   -43985.56393627
  entropy T*S    EENTRO =         0.00000000
  eigenvalues    EBANDS =     -2005.62250973
  atomic energy  EATOM  =     45900.87429371
  Solvation  Ediel_sol  =         0.00000000
  ---------------------------------------------------
  free energy    TOTEN  =       126.22974690 eV

  energy without entropy =      126.22974690  energy(sigma->0) =      126.22974690


--------------------------------------------------------------------------------------------------------




--------------------------------------- Iteration      1(   3)  ---------------------------------------


     EDDAV:  cpu time    7.3720: real time    7.3872
       DOS:  cpu time    0.0000: real time    0.0003
    --------------------------------------------
      LOOP:  cpu time    7.3720: real time    7.3875

 eigenvalue-minimisations  :  1328
 total energy-change (2. order) :-0.1799085E+03  (-0.1691961E+03)
 number of electron     363.0000000 magnetization      99.0000000
 augmentation part      363.0000000 magnetization      99.0000000

 Free energy of the ion-electron system (eV)
  ---------------------------------------------------
  alpha Z        PSCENC =        66.95074331
  Ewald energy   TEWEN  =    104922.81031962
  -Hartree energ DENC   =   -146792.22197688
  -exchange      EXHF   =         0.00000000
  -V(xc)+E(xc)   XCENC  =      1520.83587965
  PAW double counting   =     40498.16693349   -43985.56393627
  entropy T*S    EENTRO =        -0.00000000
  eigenvalues    EBANDS =     -2185.53103328
  atomic energy  EATOM  =     45900.87429371
  Solvation  Ediel_sol  =         0.00000000
  ---------------------------------------------------
  free energy    TOTEN  =       -53.67877664 eV

  energy without entropy =      -53.67877664  energy(sigma->0) =      -53.67877664


--------------------------------------------------------------------------------------------------------




--------------------------------------- Iteration      1(   4)  ---------------------------------------


     EDDAV:  cpu time    7.4320: real time    7.4364
       DOS:  cpu time    0.0000: real time    0.0004
    --------------------------------------------
      LOOP:  cpu time    7.4320: real time    7.4367

 eigenvalue-minimisations  :  1336
 total energy-change (2. order) :-0.1120199E+02  (-0.1073459E+02)
 number of electron     363.0000000 magnetization      99.0000000
 augmentation part      363.0000000 magnetization      99.0000000

 Free energy of the ion-electron system (eV)
  ---------------------------------------------------
  alpha Z        PSCENC =        66.95074331
  Ewald energy   TEWEN  =    104922.81031962
  -Hartree energ DENC   =   -146792.22197688
  -exchange      EXHF   =         0.00000000
  -V(xc)+E(xc)   XCENC  =      1520.83587965
  PAW double counting   =     40498.16693349   -43985.56393627
  entropy T*S    EENTRO =         0.00000000
  eigenvalues    EBANDS =     -2196.73302146
  atomic energy  EATOM  =     45900.87429371
  Solvation  Ediel_sol  =         0.00000000
  ---------------------------------------------------
  free energy    TOTEN  =       -64.88076483 eV

  energy without entropy =      -64.88076483  energy(sigma->0) =      -64.88076483


--------------------------------------------------------------------------------------------------------




--------------------------------------- Iteration      1(   5)  ---------------------------------------


     EDDAV:  cpu time    7.5320: real time    7.5322
       DOS:  cpu time    0.0040: real time    0.0006
    CHARGE:  cpu time    0.1560: real time    0.1561
    MIXING:  cpu time    0.0080: real time    0.0094
    --------------------------------------------
      LOOP:  cpu time    7.7000: real time    7.6983

 eigenvalue-minimisations  :  1360
 total energy-change (2. order) :-0.3958812E+00  (-0.3945297E+00)
 number of electron     363.0000751 magnetization      89.9857127
 augmentation part      214.8880035 magnetization      86.7030400

 Broyden mixing:
  rms(total) = 0.10283E+02    rms(broyden)= 0.10281E+02
  rms(prec ) = 0.10387E+02
  weight for this iteration     100.00

 Free energy of the ion-electron system (eV)
  ---------------------------------------------------
  alpha Z        PSCENC =        66.95074331
  Ewald energy   TEWEN  =    104922.81031962
  -Hartree energ DENC   =   -146792.22197688
  -exchange      EXHF   =         0.00000000
  -V(xc)+E(xc)   XCENC  =      1520.83587965
  PAW double counting   =     40498.16693349   -43985.56393627
  entropy T*S    EENTRO =         0.00000000
  eigenvalues    EBANDS =     -2197.12890262
  atomic energy  EATOM  =     45900.87429371
  Solvation  Ediel_sol  =         0.00000000
  ---------------------------------------------------
  free energy    TOTEN  =       -65.27664599 eV

  energy without entropy =      -65.27664599  energy(sigma->0) =      -65.27664599


--------------------------------------------------------------------------------------------------------




--------------------------------------- Iteration      1(   6)  ---------------------------------------


    POTLOK:  cpu time    0.3280: real time    0.3383
    SETDIJ:  cpu time    0.0080: real time    0.0075
     EDDAV:  cpu time    6.5040: real time    6.5071
       DOS:  cpu time    0.0000: real time    0.0006
    CHARGE:  cpu time    0.1560: real time    0.1529
    MIXING:  cpu time    0.0080: real time    0.0094
    --------------------------------------------
      LOOP:  cpu time    7.0040: real time    7.0159

 eigenvalue-minimisations  :  1132
 total energy-change (2. order) : 0.2368922E+03  (-0.1349093E+03)
 number of electron     363.0000850 magnetization      83.6431780
 augmentation part      250.3315039 magnetization      54.7664671

 Broyden mixing:
  rms(total) = 0.48601E+01    rms(broyden)= 0.48572E+01
  rms(prec ) = 0.50428E+01
  weight for this iteration     100.00

 eigenvalues of (default mixing * dielectric matrix)
  average eigenvalue GAMMA=   0.9443
  0.9443

 Free energy of the ion-electron system (eV)
  ---------------------------------------------------
  alpha Z        PSCENC =        66.95074331
  Ewald energy   TEWEN  =    104922.81031962
  -Hartree energ DENC   =   -145897.65065996
  -exchange      EXHF   =         0.00000000
  -V(xc)+E(xc)   XCENC  =      1648.91165847
  PAW double counting   =     40653.38320370   -43972.25280515
  entropy T*S    EENTRO =         0.00000000
  eigenvalues    EBANDS =     -3151.41124507
  atomic energy  EATOM  =     45900.87429371
  Solvation  Ediel_sol  =         0.00000000
  ---------------------------------------------------
  free energy    TOTEN  =       171.61550864 eV

  energy without entropy =      171.61550864  energy(sigma->0) =      171.61550864


--------------------------------------------------------------------------------------------------------




--------------------------------------- Iteration      1(   7)  ---------------------------------------


    POTLOK:  cpu time    0.3280: real time    0.3362
    SETDIJ:  cpu time    0.0040: real time    0.0074
     EDDAV:  cpu time    7.0280: real time    7.0262
       DOS:  cpu time    0.0000: real time    0.0007
    CHARGE:  cpu time    0.1560: real time    0.1535
    MIXING:  cpu time    0.0080: real time    0.0100
    --------------------------------------------
      LOOP:  cpu time    7.5240: real time    7.5340

 eigenvalue-minimisations  :  1248
 total energy-change (2. order) :-0.7310445E+01  (-0.5297712E+02)
 number of electron     363.0000798 magnetization      76.1587760
 augmentation part      234.4308063 magnetization      46.3734993

 Broyden mixing:
  rms(total) = 0.25326E+01    rms(broyden)= 0.25316E+01
  rms(prec ) = 0.25682E+01
  weight for this iteration     100.00

 eigenvalues of (default mixing * dielectric matrix)
  average eigenvalue GAMMA=   0.8787
  1.0760  0.6814

 Free energy of the ion-electron system (eV)
  ---------------------------------------------------
  alpha Z        PSCENC =        66.95074331
  Ewald energy   TEWEN  =    104922.81031962
  -Hartree energ DENC   =   -146707.41396881
  -exchange      EXHF   =         0.00000000
  -V(xc)+E(xc)   XCENC  =      1663.19557995
  PAW double counting   =     41898.71896718   -45503.00205364
  entropy T*S    EENTRO =         0.00000000
  eigenvalues    EBANDS =     -2077.82881776
  atomic energy  EATOM  =     45900.87429371
  Solvation  Ediel_sol  =         0.00000000
  ---------------------------------------------------
  free energy    TOTEN  =       164.30506357 eV

  energy without entropy =      164.30506357  energy(sigma->0) =      164.30506357


--------------------------------------------------------------------------------------------------------




--------------------------------------- Iteration      1(   8)  ---------------------------------------


    POTLOK:  cpu time    0.3320: real time    0.3341
    SETDIJ:  cpu time    0.0080: real time    0.0074
     EDDAV:  cpu time    7.3520: real time    7.3527
       DOS:  cpu time    0.0000: real time    0.0008
    CHARGE:  cpu time    0.1520: real time    0.1529
    MIXING:  cpu time    0.0120: real time    0.0102
    --------------------------------------------
      LOOP:  cpu time    7.8560: real time    7.8582

 eigenvalue-minimisations  :  1320
 total energy-change (2. order) : 0.1635012E+02  (-0.8059890E+01)
 number of electron     363.0000788 magnetization      71.9285014
 augmentation part      232.0590992 magnetization      40.0387809

 Broyden mixing:
  rms(total) = 0.22953E+01    rms(broyden)= 0.22946E+01
  rms(prec ) = 0.23731E+01
  weight for this iteration     100.00

 eigenvalues of (default mixing * dielectric matrix)
  average eigenvalue GAMMA=   0.7862
  1.1153  0.6783  0.5652

 Free energy of the ion-electron system (eV)
  ---------------------------------------------------
  alpha Z        PSCENC =        66.95074331
  Ewald energy   TEWEN  =    104922.81031962
  -Hartree energ DENC   =   -146825.75074087
  -exchange      EXHF   =         0.00000000
  -V(xc)+E(xc)   XCENC  =      1676.48329666
  PAW double counting   =     42593.57017847   -46208.96373652
  entropy T*S    EENTRO =         0.00000000
  eigenvalues    EBANDS =     -1945.31917285
  atomic energy  EATOM  =     45900.87429371
  Solvation  Ediel_sol  =         0.00000000
  ---------------------------------------------------
  free energy    TOTEN  =       180.65518154 eV

  energy without entropy =      180.65518154  energy(sigma->0) =      180.65518154


--------------------------------------------------------------------------------------------------------




--------------------------------------- Iteration      1(   9)  ---------------------------------------


    POTLOK:  cpu time    0.3360: real time    0.3404
    SETDIJ:  cpu time    0.0080: real time    0.0075
     EDDAV:  cpu time    7.3480: real time    7.3517
       DOS:  cpu time    0.0040: real time    0.0006
    CHARGE:  cpu time    0.1520: real time    0.1558
    MIXING:  cpu time    0.0120: real time    0.0107
    --------------------------------------------
      LOOP:  cpu time    7.8600: real time    7.8668

 eigenvalue-minimisations  :  1320
 total energy-change (2. order) :-0.1488824E+02  (-0.2413683E+01)
 number of electron     363.0000803 magnetization      61.0859278
 augmentation part      233.0902646 magnetization      31.3356607

 Broyden mixing:
  rms(total) = 0.16677E+01    rms(broyden)= 0.16672E+01
  rms(prec ) = 0.16899E+01
  weight for this iteration     100.00

 eigenvalues of (default mixing * dielectric matrix)
  average eigenvalue GAMMA=   0.9170
  1.4254  1.0848  0.7448  0.4132

 Free energy of the ion-electron system (eV)
  ---------------------------------------------------
  alpha Z        PSCENC =        66.95074331
  Ewald energy   TEWEN  =    104922.81031962
  -Hartree energ DENC   =   -146776.52502310
  -exchange      EXHF   =         0.00000000
  -V(xc)+E(xc)   XCENC  =      1662.31831435
  PAW double counting   =     42746.80335589   -46344.96430357
  entropy T*S    EENTRO =         0.00000000
  eigenvalues    EBANDS =     -2012.50076267
  atomic energy  EATOM  =     45900.87429371
  Solvation  Ediel_sol  =         0.00000000
  ---------------------------------------------------
  free energy    TOTEN  =       165.76693755 eV

  energy without entropy =      165.76693755  energy(sigma->0) =      165.76693755


--------------------------------------------------------------------------------------------------------




--------------------------------------- Iteration      1(  10)  ---------------------------------------


    POTLOK:  cpu time    0.3280: real time    0.3361
    SETDIJ:  cpu time    0.0040: real time    0.0075
     EDDAV:  cpu time    8.9000: real time    8.9005
       DOS:  cpu time    0.0040: real time    0.0006
    CHARGE:  cpu time    0.1520: real time    0.1526
    MIXING:  cpu time    0.0120: real time    0.0112
    --------------------------------------------
      LOOP:  cpu time    9.4000: real time    9.4085

 eigenvalue-minimisations  :  1680
 total energy-change (2. order) :-0.5775958E+02  (-0.2867336E+01)
 number of electron     363.0000796 magnetization      50.2791219
 augmentation part      234.0825188 magnetization      23.8383377

 Broyden mixing:
  rms(total) = 0.13319E+01    rms(broyden)= 0.13314E+01
  rms(prec ) = 0.13577E+01
  weight for this iteration     100.00

 eigenvalues of (default mixing * dielectric matrix)
  average eigenvalue GAMMA=   1.0579
  2.4300  1.1964  0.6672  0.5606  0.4353

 Free energy of the ion-electron system (eV)
  ---------------------------------------------------
  alpha Z        PSCENC =        66.95074331
  Ewald energy   TEWEN  =    104922.81031962
  -Hartree energ DENC   =   -146770.36512607
  -exchange      EXHF   =         0.00000000
  -V(xc)+E(xc)   XCENC  =      1615.41759236
  PAW double counting   =     43053.52074113   -46618.08712379
  entropy T*S    EENTRO =         0.00000000
  eigenvalues    EBANDS =     -2063.11408453
  atomic energy  EATOM  =     45900.87429371
  Solvation  Ediel_sol  =         0.00000000
  ---------------------------------------------------
  free energy    TOTEN  =       108.00735575 eV

  energy without entropy =      108.00735575  energy(sigma->0) =      108.00735575


--------------------------------------------------------------------------------------------------------




--------------------------------------- Iteration      1(  11)  ---------------------------------------


    POTLOK:  cpu time    0.3240: real time    0.3407
    SETDIJ:  cpu time    0.0080: real time    0.0075
     EDDAV:  cpu time    7.5120: real time    7.5097
       DOS:  cpu time    0.0000: real time    0.0007
    CHARGE:  cpu time    0.1560: real time    0.1565
    MIXING:  cpu time    0.0120: real time    0.0114
    --------------------------------------------
      LOOP:  cpu time    8.0120: real time    8.0265

 eigenvalue-minimisations  :  1360
 total energy-change (2. order) :-0.3754784E+02  (-0.2791681E+01)
 number of electron     363.0000816 magnetization      43.8984189
 augmentation part      234.6994010 magnetization      21.3036616

 Broyden mixing:
  rms(total) = 0.10075E+01    rms(broyden)= 0.10071E+01
  rms(prec ) = 0.10260E+01
  weight for this iteration     100.00

 eigenvalues of (default mixing * dielectric matrix)
  average eigenvalue GAMMA=   1.0669
  2.8525  1.2885  0.6682  0.6682  0.5176  0.4065

 Free energy of the ion-electron system (eV)
  ---------------------------------------------------
  alpha Z        PSCENC =        66.95074331
  Ewald energy   TEWEN  =    104922.81031962
  -Hartree energ DENC   =   -146771.59816347
  -exchange      EXHF   =         0.00000000
  -V(xc)+E(xc)   XCENC  =      1587.15246062
  PAW double counting   =     43238.81445598   -46782.69026711
  entropy T*S    EENTRO =         0.00000000
  eigenvalues    EBANDS =     -2091.85432878
  atomic energy  EATOM  =     45900.87429371
  Solvation  Ediel_sol  =         0.00000000
  ---------------------------------------------------
  free energy    TOTEN  =        70.45951388 eV

  energy without entropy =       70.45951388  energy(sigma->0) =       70.45951388


--------------------------------------------------------------------------------------------------------




--------------------------------------- Iteration      1(  12)  ---------------------------------------


    POTLOK:  cpu time    0.3320: real time    0.3427
    SETDIJ:  cpu time    0.0080: real time    0.0075
     EDDAV:  cpu time    7.3800: real time    7.3817
       DOS:  cpu time    0.0040: real time    0.0008
    CHARGE:  cpu time    0.1560: real time    0.1564
    MIXING:  cpu time    0.0120: real time    0.0118
    --------------------------------------------
      LOOP:  cpu time    7.8920: real time    7.9009

 eigenvalue-minimisations  :  1328
 total energy-change (2. order) :-0.2238103E+02  (-0.1730494E+01)
 number of electron     363.0000807 magnetization      34.1895710
 augmentation part      233.7331080 magnetization      13.3861551

 Broyden mixing:
  rms(total) = 0.74970E+00    rms(broyden)= 0.74954E+00
  rms(prec ) = 0.76089E+00
  weight for this iteration     100.00

 eigenvalues of (default mixing * dielectric matrix)
  average eigenvalue GAMMA=   1.2306
  3.8012  1.6683  0.8207  0.8207  0.6421  0.4306  0.4306

 Free energy of the ion-electron system (eV)
  ---------------------------------------------------
  alpha Z        PSCENC =        66.95074331
  Ewald energy   TEWEN  =    104922.81031962
  -Hartree energ DENC   =   -146808.38440814
  -exchange      EXHF   =         0.00000000
  -V(xc)+E(xc)   XCENC  =      1572.00672071
  PAW double counting   =     43233.07308655   -46780.80183240
  entropy T*S    EENTRO =         0.00000000
  eigenvalues    EBANDS =     -2058.45043606
  atomic energy  EATOM  =     45900.87429371
  Solvation  Ediel_sol  =         0.00000000
  ---------------------------------------------------
  free energy    TOTEN  =        48.07848730 eV

  energy without entropy =       48.07848730  energy(sigma->0) =       48.07848730


--------------------------------------------------------------------------------------------------------




--------------------------------------- Iteration      1(  13)  ---------------------------------------


    POTLOK:  cpu time    0.3360: real time    0.3389
    SETDIJ:  cpu time    0.0080: real time    0.0074
     EDDAV:  cpu time    7.7320: real time    7.7340
       DOS:  cpu time    0.0000: real time    0.0008
    CHARGE:  cpu time    0.1560: real time    0.1562
    MIXING:  cpu time    0.0120: real time    0.0124
    --------------------------------------------
      LOOP:  cpu time    8.2440: real time    8.2497

 eigenvalue-minimisations  :  1408
 total energy-change (2. order) :-0.5180259E+02  (-0.3859586E+01)
 number of electron     363.0000806 magnetization      26.1705833
 augmentation part      232.4451982 magnetization      11.1205610

 Broyden mixing:
  rms(total) = 0.69346E+00    rms(broyden)= 0.69237E+00
  rms(prec ) = 0.71174E+00
  weight for this iteration     100.00

 eigenvalues of (default mixing * dielectric matrix)
  average eigenvalue GAMMA=   1.2757
  4.6051  1.8888  0.9876  0.7199  0.7199  0.4536  0.4536  0.3769

 Free energy of the ion-electron system (eV)
  ---------------------------------------------------
  alpha Z        PSCENC =        66.95074331
  Ewald energy   TEWEN  =    104922.81031962
  -Hartree energ DENC   =   -146818.82036331
  -exchange      EXHF   =         0.00000000
  -V(xc)+E(xc)   XCENC  =      1534.26023829
  PAW double counting   =     43074.93684106   -46623.46616379
  entropy T*S    EENTRO =        -0.00000000
  eigenvalues    EBANDS =     -2061.27001018
  atomic energy  EATOM  =     45900.87429371
  Solvation  Ediel_sol  =         0.00000000
  ---------------------------------------------------
  free energy    TOTEN  =        -3.72410129 eV

  energy without entropy =       -3.72410129  energy(sigma->0) =       -3.72410129


--------------------------------------------------------------------------------------------------------




--------------------------------------- Iteration      1(  14)  ---------------------------------------


    POTLOK:  cpu time    0.3280: real time    0.3378
    SETDIJ:  cpu time    0.0080: real time    0.0073
     EDDAV:  cpu time    7.5680: real time    7.5691
       DOS:  cpu time    0.0000: real time    0.0006
    CHARGE:  cpu time    0.1520: real time    0.1528
    MIXING:  cpu time    0.0160: real time    0.0134
    --------------------------------------------
      LOOP:  cpu time    8.0720: real time    8.0809

 eigenvalue-minimisations  :  1368
 total energy-change (2. order) :-0.3157334E+02  (-0.2666744E+01)
 number of electron     363.0000806 magnetization      20.5405270
 augmentation part      231.8462724 magnetization      10.4635539

 Broyden mixing:
  rms(total) = 0.57322E+00    rms(broyden)= 0.57217E+00
  rms(prec ) = 0.58839E+00
  weight for this iteration     100.00

 eigenvalues of (default mixing * dielectric matrix)
  average eigenvalue GAMMA=   1.3006
  5.4181  2.0224  1.1160  0.6878  0.6878  0.4524  0.4524  0.4570  0.4116

 Free energy of the ion-electron system (eV)
  ---------------------------------------------------
  alpha Z        PSCENC =        66.95074331
  Ewald energy   TEWEN  =    104922.81031962
  -Hartree energ DENC   =   -146826.92876726
  -exchange      EXHF   =         0.00000000
  -V(xc)+E(xc)   XCENC  =      1511.14275825
  PAW double counting   =     42986.13593057   -46534.37525218
  entropy T*S    EENTRO =         0.00000000
  eigenvalues    EBANDS =     -2061.90747208
  atomic energy  EATOM  =     45900.87429371
  Solvation  Ediel_sol  =         0.00000000
  ---------------------------------------------------
  free energy    TOTEN  =       -35.29744605 eV

  energy without entropy =      -35.29744605  energy(sigma->0) =      -35.29744605


--------------------------------------------------------------------------------------------------------




--------------------------------------- Iteration      1(  15)  ---------------------------------------


    POTLOK:  cpu time    0.3240: real time    0.3383
    SETDIJ:  cpu time    0.0080: real time    0.0074
     EDDAV:  cpu time    7.4320: real time    7.4334
       DOS:  cpu time    0.0040: real time    0.0007
    CHARGE:  cpu time    0.1560: real time    0.1572
    MIXING:  cpu time    0.0120: real time    0.0137
    --------------------------------------------
      LOOP:  cpu time    7.9360: real time    7.9506

 eigenvalue-minimisations  :  1336
 total energy-change (2. order) :-0.1563359E+02  (-0.1275018E+01)
 number of electron     363.0000804 magnetization      17.1312863
 augmentation part      231.8816625 magnetization      11.5583976

 Broyden mixing:
  rms(total) = 0.51987E+00    rms(broyden)= 0.51906E+00
  rms(prec ) = 0.53470E+00
  weight for this iteration     100.00

 eigenvalues of (default mixing * dielectric matrix)
  average eigenvalue GAMMA=   1.2489
  5.7519  2.0383  1.1122  0.6652  0.6652  0.5393  0.5393  0.4301  0.4301  0.3173

 Free energy of the ion-electron system (eV)
  ---------------------------------------------------
  alpha Z        PSCENC =        66.95074331
  Ewald energy   TEWEN  =    104922.81031962
  -Hartree energ DENC   =   -146827.48626216
  -exchange      EXHF   =         0.00000000
  -V(xc)+E(xc)   XCENC  =      1499.64280752
  PAW double counting   =     42957.10090115   -46502.59187674
  entropy T*S    EENTRO =         0.00000000
  eigenvalues    EBANDS =     -2068.23196585
  atomic energy  EATOM  =     45900.87429371
  Solvation  Ediel_sol  =         0.00000000
  ---------------------------------------------------
  free energy    TOTEN  =       -50.93103944 eV

  energy without entropy =      -50.93103944  energy(sigma->0) =      -50.93103944


--------------------------------------------------------------------------------------------------------




--------------------------------------- Iteration      1(  16)  ---------------------------------------


    POTLOK:  cpu time    0.3280: real time    0.3362
    SETDIJ:  cpu time    0.0080: real time    0.0074
     EDDAV:  cpu time    7.8160: real time    7.8147
       DOS:  cpu time    0.0000: real time    0.0006
    CHARGE:  cpu time    0.1520: real time    0.1525
    MIXING:  cpu time    0.0160: real time    0.0141
    --------------------------------------------
      LOOP:  cpu time    8.3200: real time    8.3256

 eigenvalue-minimisations  :  1432
 total energy-change (2. order) :-0.6915534E+01  (-0.4775865E+00)
 number of electron     363.0000805 magnetization      12.8086394
 augmentation part      231.8820484 magnetization       8.1292779

 Broyden mixing:
  rms(total) = 0.40660E+00    rms(broyden)= 0.40648E+00
  rms(prec ) = 0.42059E+00
  weight for this iteration     100.00

 eigenvalues of (default mixing * dielectric matrix)
  average eigenvalue GAMMA=   1.3553
  6.6573  2.3705  0.9300  0.9300  0.8073  0.8073  0.6900  0.4899  0.4343  0.4343
  0.3573

 Free energy of the ion-electron system (eV)
  ---------------------------------------------------
  alpha Z        PSCENC =        66.95074331
  Ewald energy   TEWEN  =    104922.81031962
  -Hartree energ DENC   =   -146826.11858044
  -exchange      EXHF   =         0.00000000
  -V(xc)+E(xc)   XCENC  =      1494.81174611
  PAW double counting   =     42942.12909676   -46485.28207889
  entropy T*S    EENTRO =         0.00000000
  eigenvalues    EBANDS =     -2074.02211364
  atomic energy  EATOM  =     45900.87429371
  Solvation  Ediel_sol  =         0.00000000
  ---------------------------------------------------
  free energy    TOTEN  =       -57.84657346 eV

  energy without entropy =      -57.84657346  energy(sigma->0) =      -57.84657346


--------------------------------------------------------------------------------------------------------




--------------------------------------- Iteration      1(  17)  ---------------------------------------


    POTLOK:  cpu time    0.3240: real time    0.3375
    SETDIJ:  cpu time    0.0080: real time    0.0074
     EDDAV:  cpu time    7.9560: real time    7.9576
       DOS:  cpu time    0.0040: real time    0.0009
    CHARGE:  cpu time    0.1520: real time    0.1530
    MIXING:  cpu time    0.0160: real time    0.0148
    --------------------------------------------
      LOOP:  cpu time    8.4600: real time    8.4712

 eigenvalue-minimisations  :  1464
 total energy-change (2. order) :-0.1190166E+02  (-0.6699788E+00)
 number of electron     363.0000807 magnetization       9.1570355
 augmentation part      232.4669949 magnetization       7.1870894

 Broyden mixing:
  rms(total) = 0.33252E+00    rms(broyden)= 0.33181E+00
  rms(prec ) = 0.34378E+00
  weight for this iteration     100.00

 eigenvalues of (default mixing * dielectric matrix)
  average eigenvalue GAMMA=   1.3927
  7.6711  2.4010  1.0713  1.0713  0.8460  0.8460  0.6007  0.6007  0.4426  0.4426
  0.3977  0.3216

 Free energy of the ion-electron system (eV)
  ---------------------------------------------------
  alpha Z        PSCENC =        66.95074331
  Ewald energy   TEWEN  =    104922.81031962
  -Hartree energ DENC   =   -146790.67543668
  -exchange      EXHF   =         0.00000000
  -V(xc)+E(xc)   XCENC  =      1484.35556831
  PAW double counting   =     42834.38639802   -46371.18982801
  entropy T*S    EENTRO =         0.00000000
  eigenvalues    EBANDS =     -2117.26028679
  atomic energy  EATOM  =     45900.87429371
  Solvation  Ediel_sol  =         0.00000000
  ---------------------------------------------------
  free energy    TOTEN  =       -69.74822851 eV

  energy without entropy =      -69.74822851  energy(sigma->0) =      -69.74822851


--------------------------------------------------------------------------------------------------------




--------------------------------------- Iteration      1(  18)  ---------------------------------------


    POTLOK:  cpu time    0.3240: real time    0.3407
    SETDIJ:  cpu time    0.0080: real time    0.0072
     EDDAV:  cpu time    7.5840: real time    7.5835
       DOS:  cpu time    0.0000: real time    0.0008
    CHARGE:  cpu time    0.1560: real time    0.1545
    MIXING:  cpu time    0.0160: real time    0.0154
    --------------------------------------------
      LOOP:  cpu time    8.0880: real time    8.1020

 eigenvalue-minimisations  :  1376
 total energy-change (2. order) :-0.6968779E+01  (-0.2568229E+00)
 number of electron     363.0000806 magnetization       6.5530750
 augmentation part      232.5683312 magnetization       5.1953606

 Broyden mixing:
  rms(total) = 0.22796E+00    rms(broyden)= 0.22785E+00
  rms(prec ) = 0.23525E+00
  weight for this iteration     100.00

 eigenvalues of (default mixing * dielectric matrix)
  average eigenvalue GAMMA=   1.4353
  8.4839  2.4755  1.0240  1.0240  1.0098  1.0098  0.7393  0.7393  0.5561  0.4280
  0.4280  0.4073  0.3337

 Free energy of the ion-electron system (eV)
  ---------------------------------------------------
  alpha Z        PSCENC =        66.95074331
  Ewald energy   TEWEN  =    104922.81031962
  -Hartree energ DENC   =   -146779.13469184
  -exchange      EXHF   =         0.00000000
  -V(xc)+E(xc)   XCENC  =      1478.32110834
  PAW double counting   =     42794.82052370   -46331.59149379
  entropy T*S    EENTRO =         0.00000000
  eigenvalues    EBANDS =     -2129.76781100
  atomic energy  EATOM  =     45900.87429371
  Solvation  Ediel_sol  =         0.00000000
  ---------------------------------------------------
  free energy    TOTEN  =       -76.71700794 eV

  energy without entropy =      -76.71700794  energy(sigma->0) =      -76.71700794


--------------------------------------------------------------------------------------------------------




--------------------------------------- Iteration      1(  19)  ---------------------------------------


    POTLOK:  cpu time    0.3280: real time    0.3390
    SETDIJ:  cpu time    0.0040: real time    0.0070
     EDDAV:  cpu time    7.3840: real time    7.3814
       DOS:  cpu time    0.0000: real time    0.0008
    CHARGE:  cpu time    0.1560: real time    0.1558
    MIXING:  cpu time    0.0160: real time    0.0161
    --------------------------------------------
      LOOP:  cpu time    7.8880: real time    7.9002

 eigenvalue-minimisations  :  1328
 total energy-change (2. order) :-0.5638942E+01  (-0.1376452E+00)
 number of electron     363.0000808 magnetization       4.7006498
 augmentation part      232.5455004 magnetization       3.5971602

 Broyden mixing:
  rms(total) = 0.18361E+00    rms(broyden)= 0.18357E+00
  rms(prec ) = 0.19141E+00
  weight for this iteration     100.00

 eigenvalues of (default mixing * dielectric matrix)
  average eigenvalue GAMMA=   1.4737
  9.1190  2.7959  1.2676  1.2676  0.9921  0.9921  0.7292  0.7292  0.5792  0.5792
  0.4278  0.4278  0.3914  0.3333

 Free energy of the ion-electron system (eV)
  ---------------------------------------------------
  alpha Z        PSCENC =        66.95074331
  Ewald energy   TEWEN  =    104922.81031962
  -Hartree energ DENC   =   -146767.58779172
  -exchange      EXHF   =         0.00000000
  -V(xc)+E(xc)   XCENC  =      1473.23675602
  PAW double counting   =     42773.04483682   -46311.95171318
  entropy T*S    EENTRO =         0.00000000
  eigenvalues    EBANDS =     -2139.73339451
  atomic energy  EATOM  =     45900.87429371
  Solvation  Ediel_sol  =         0.00000000
  ---------------------------------------------------
  free energy    TOTEN  =       -82.35594992 eV

  energy without entropy =      -82.35594992  energy(sigma->0) =      -82.35594992


--------------------------------------------------------------------------------------------------------




--------------------------------------- Iteration      1(  20)  ---------------------------------------


    POTLOK:  cpu time    0.3240: real time    0.3413
    SETDIJ:  cpu time    0.0080: real time    0.0074
     EDDAV:  cpu time    7.6600: real time    7.6588
       DOS:  cpu time    0.0000: real time    0.0006
    CHARGE:  cpu time    0.1560: real time    0.1557
    MIXING:  cpu time    0.0160: real time    0.0179
    --------------------------------------------
      LOOP:  cpu time    8.1640: real time    8.1817

 eigenvalue-minimisations  :  1392
 total energy-change (2. order) :-0.4251876E+01  (-0.7428513E-01)
 number of electron     363.0000807 magnetization       3.4661727
 augmentation part      232.5738371 magnetization       2.5203460

 Broyden mixing:
  rms(total) = 0.11571E+00    rms(broyden)= 0.11567E+00
  rms(prec ) = 0.12153E+00
  weight for this iteration     100.00

 eigenvalues of (default mixing * dielectric matrix)
  average eigenvalue GAMMA=   1.5186
  9.6630  3.2814  1.3908  1.3908  1.0855  1.0855  0.7314  0.7314  0.6833  0.6833
  0.4655  0.4281  0.4281  0.3975  0.3338

 Free energy of the ion-electron system (eV)
  ---------------------------------------------------
  alpha Z        PSCENC =        66.95074331
  Ewald energy   TEWEN  =    104922.81031962
  -Hartree energ DENC   =   -146747.93318725
  -exchange      EXHF   =         0.00000000
  -V(xc)+E(xc)   XCENC  =      1469.10184946
  PAW double counting   =     42737.17346559   -46277.17053003
  entropy T*S    EENTRO =         0.00000000
  eigenvalues    EBANDS =     -2158.41478004
  atomic energy  EATOM  =     45900.87429371
  Solvation  Ediel_sol  =         0.00000000
  ---------------------------------------------------
  free energy    TOTEN  =       -86.60782564 eV

  energy without entropy =      -86.60782564  energy(sigma->0) =      -86.60782564


--------------------------------------------------------------------------------------------------------




--------------------------------------- Iteration      1(  21)  ---------------------------------------


    POTLOK:  cpu time    0.3360: real time    0.3376
    SETDIJ:  cpu time    0.0080: real time    0.0071
     EDDAV:  cpu time    7.9680: real time    7.9702
       DOS:  cpu time    0.0000: real time    0.0006
    CHARGE:  cpu time    0.1520: real time    0.1505
    MIXING:  cpu time    0.0160: real time    0.0176
    --------------------------------------------
      LOOP:  cpu time    8.4800: real time    8.4836

 eigenvalue-minimisations  :  1472
 total energy-change (2. order) :-0.2964223E+01  (-0.3529721E-01)
 number of electron     363.0000808 magnetization       2.6536468
 augmentation part      232.6160255 magnetization       1.7644586

 Broyden mixing:
  rms(total) = 0.80106E-01    rms(broyden)= 0.80080E-01
  rms(prec ) = 0.85232E-01
  weight for this iteration     100.00

 eigenvalues of (default mixing * dielectric matrix)
  average eigenvalue GAMMA=   1.5579
 10.0789  3.7916  1.8365  1.2267  1.2267  0.9538  0.9538  0.7329  0.7329  0.7619
  0.6125  0.4291  0.4291  0.4273  0.3988  0.3336

 Free energy of the ion-electron system (eV)
  ---------------------------------------------------
  alpha Z        PSCENC =        66.95074331
  Ewald energy   TEWEN  =    104922.81031962
  -Hartree energ DENC   =   -146726.66715413
  -exchange      EXHF   =         0.00000000
  -V(xc)+E(xc)   XCENC  =      1466.07177354
  PAW double counting   =     42718.78731707   -46259.42394719
  entropy T*S    EENTRO =         0.00000000
  eigenvalues    EBANDS =     -2178.97539409
  atomic energy  EATOM  =     45900.87429371
  Solvation  Ediel_sol  =         0.00000000
  ---------------------------------------------------
  free energy    TOTEN  =       -89.57204815 eV

  energy without entropy =      -89.57204815  energy(sigma->0) =      -89.57204815


--------------------------------------------------------------------------------------------------------




--------------------------------------- Iteration      1(  22)  ---------------------------------------


    POTLOK:  cpu time    0.3280: real time    0.3380
    SETDIJ:  cpu time    0.0080: real time    0.0075
     EDDAV:  cpu time    7.3520: real time    7.3521
       DOS:  cpu time    0.0000: real time    0.0007
    CHARGE:  cpu time    0.1480: real time    0.1503
    MIXING:  cpu time    0.0200: real time    0.0189
    --------------------------------------------
      LOOP:  cpu time    7.8560: real time    7.8673

 eigenvalue-minimisations  :  1328
 total energy-change (2. order) :-0.1724992E+01  (-0.1152771E-01)
 number of electron     363.0000807 magnetization       2.0065595
 augmentation part      232.5716586 magnetization       1.1032097

 Broyden mixing:
  rms(total) = 0.50755E-01    rms(broyden)= 0.50736E-01
  rms(prec ) = 0.55321E-01
  weight for this iteration     100.00

 eigenvalues of (default mixing * dielectric matrix)
  average eigenvalue GAMMA=   1.5914
 10.5307  4.3261  1.9241  1.4630  1.0240  1.0240  1.0517  1.0517  0.7234  0.7234
  0.6524  0.5423  0.4262  0.4262  0.4341  0.3980  0.3332

 Free energy of the ion-electron system (eV)
  ---------------------------------------------------
  alpha Z        PSCENC =        66.95074331
  Ewald energy   TEWEN  =    104922.81031962
  -Hartree energ DENC   =   -146712.17989630
  -exchange      EXHF   =         0.00000000
  -V(xc)+E(xc)   XCENC  =      1464.36205110
  PAW double counting   =     42724.29689040   -46266.17016276
  entropy T*S    EENTRO =         0.00000000
  eigenvalues    EBANDS =     -2192.24127944
  atomic energy  EATOM  =     45900.87429371
  Solvation  Ediel_sol  =         0.00000000
  ---------------------------------------------------
  free energy    TOTEN  =       -91.29704035 eV

  energy without entropy =      -91.29704035  energy(sigma->0) =      -91.29704035


--------------------------------------------------------------------------------------------------------




--------------------------------------- Iteration      1(  23)  ---------------------------------------


    POTLOK:  cpu time    0.3280: real time    0.3374
    SETDIJ:  cpu time    0.0080: real time    0.0072
     EDDAV:  cpu time    7.1480: real time    7.1486
       DOS:  cpu time    0.0000: real time    0.0007
    CHARGE:  cpu time    0.1520: real time    0.1507
    MIXING:  cpu time    0.0160: real time    0.0192
    --------------------------------------------
      LOOP:  cpu time    7.6520: real time    7.6638

 eigenvalue-minimisations  :  1280
 total energy-change (2. order) :-0.1080115E+01  (-0.4712024E-02)
 number of electron     363.0000807 magnetization       1.5441023
 augmentation part      232.5711472 magnetization       0.6583139

 Broyden mixing:
  rms(total) = 0.29371E-01    rms(broyden)= 0.29355E-01
  rms(prec ) = 0.32322E-01
  weight for this iteration     100.00

 eigenvalues of (default mixing * dielectric matrix)
  average eigenvalue GAMMA=   1.6156
 10.9173  4.7186  2.3065  1.4482  1.1569  1.1569  0.9981  0.9981  0.7378  0.7378
  0.7815  0.6484  0.3333  0.4284  0.4284  0.3981  0.4432  0.4432

 Free energy of the ion-electron system (eV)
  ---------------------------------------------------
  alpha Z        PSCENC =        66.95074331
  Ewald energy   TEWEN  =    104922.81031962
  -Hartree energ DENC   =   -146696.72160100
  -exchange      EXHF   =         0.00000000
  -V(xc)+E(xc)   XCENC  =      1463.21405055
  PAW double counting   =     42721.64676916   -46263.79976172
  entropy T*S    EENTRO =         0.00000000
  eigenvalues    EBANDS =     -2207.35196870
  atomic energy  EATOM  =     45900.87429371
  Solvation  Ediel_sol  =         0.00000000
  ---------------------------------------------------
  free energy    TOTEN  =       -92.37715506 eV

  energy without entropy =      -92.37715506  energy(sigma->0) =      -92.37715506


--------------------------------------------------------------------------------------------------------




--------------------------------------- Iteration      1(  24)  ---------------------------------------


    POTLOK:  cpu time    0.3280: real time    0.3379
    SETDIJ:  cpu time    0.0080: real time    0.0073
     EDDAV:  cpu time    7.6480: real time    7.6462
       DOS:  cpu time    0.0000: real time    0.0008
    CHARGE:  cpu time    0.1520: real time    0.1511
    MIXING:  cpu time    0.0200: real time    0.0204
    --------------------------------------------
      LOOP:  cpu time    8.1560: real time    8.1637

 eigenvalue-minimisations  :  1392
 total energy-change (2. order) :-0.5150671E+00  (-0.1694028E-02)
 number of electron     363.0000807 magnetization       1.4031722
 augmentation part      232.5815505 magnetization       0.5400059

 Broyden mixing:
  rms(total) = 0.18878E-01    rms(broyden)= 0.18869E-01
  rms(prec ) = 0.21221E-01
  weight for this iteration     100.00

 eigenvalues of (default mixing * dielectric matrix)
  average eigenvalue GAMMA=   1.6056
 10.9972  4.8107  2.6023  1.5293  1.5293  0.9933  0.9933  0.9088  0.9088  0.7261
  0.7261  0.7142  0.5811  0.3332  0.4269  0.4269  0.3993  0.4669  0.4334

 Free energy of the ion-electron system (eV)
  ---------------------------------------------------
  alpha Z        PSCENC =        66.95074331
  Ewald energy   TEWEN  =    104922.81031962
  -Hartree energ DENC   =   -146686.49259552
  -exchange      EXHF   =         0.00000000
  -V(xc)+E(xc)   XCENC  =      1462.64243754
  PAW double counting   =     42723.74842296   -46265.88926022
  entropy T*S    EENTRO =         0.00000000
  eigenvalues    EBANDS =     -2217.53658354
  atomic energy  EATOM  =     45900.87429371
  Solvation  Ediel_sol  =         0.00000000
  ---------------------------------------------------
  free energy    TOTEN  =       -92.89222213 eV

  energy without entropy =      -92.89222213  energy(sigma->0) =      -92.89222213


--------------------------------------------------------------------------------------------------------




--------------------------------------- Iteration      1(  25)  ---------------------------------------


    POTLOK:  cpu time    0.3240: real time    0.3366
    SETDIJ:  cpu time    0.0080: real time    0.0075
     EDDAV:  cpu time    6.6720: real time    6.6728
       DOS:  cpu time    0.0040: real time    0.0007
    CHARGE:  cpu time    0.1520: real time    0.1539
    MIXING:  cpu time    0.0240: real time    0.0226
    --------------------------------------------
      LOOP:  cpu time    7.1840: real time    7.1941

 eigenvalue-minimisations  :  1168
 total energy-change (2. order) :-0.1746615E+00  (-0.5710307E-03)
 number of electron     363.0000807 magnetization       1.2705819
 augmentation part      232.5779752 magnetization       0.4043760

 Broyden mixing:
  rms(total) = 0.13369E-01    rms(broyden)= 0.13366E-01
  rms(prec ) = 0.15386E-01
  weight for this iteration     100.00

 eigenvalues of (default mixing * dielectric matrix)
  average eigenvalue GAMMA=   1.5906
 11.0736  4.9065  2.7960  1.5370  1.5370  1.1635  1.0078  1.0078  0.8738  0.8738
  0.7215  0.7215  0.6238  0.5132  0.3333  0.4277  0.4277  0.3963  0.4350  0.4350

 Free energy of the ion-electron system (eV)
  ---------------------------------------------------
  alpha Z        PSCENC =        66.95074331
  Ewald energy   TEWEN  =    104922.81031962
  -Hartree energ DENC   =   -146683.43922375
  -exchange      EXHF   =         0.00000000
  -V(xc)+E(xc)   XCENC  =      1462.44978956
  PAW double counting   =     42729.92285395   -46272.01559365
  entropy T*S    EENTRO =         0.00000000
  eigenvalues    EBANDS =     -2220.62006640
  atomic energy  EATOM  =     45900.87429371
  Solvation  Ediel_sol  =         0.00000000
  ---------------------------------------------------
  free energy    TOTEN  =       -93.06688364 eV

  energy without entropy =      -93.06688364  energy(sigma->0) =      -93.06688364


--------------------------------------------------------------------------------------------------------




--------------------------------------- Iteration      1(  26)  ---------------------------------------


    POTLOK:  cpu time    0.3280: real time    0.3383
    SETDIJ:  cpu time    0.0080: real time    0.0075
     EDDAV:  cpu time    7.5960: real time    7.5964
       DOS:  cpu time    0.0000: real time    0.0007
    CHARGE:  cpu time    0.1480: real time    0.1485
    MIXING:  cpu time    0.0240: real time    0.0243
    --------------------------------------------
      LOOP:  cpu time    8.1040: real time    8.1156

 eigenvalue-minimisations  :  1384
 total energy-change (2. order) :-0.1609549E+00  (-0.2946522E-03)
 number of electron     363.0000807 magnetization       1.1810269
 augmentation part      232.5833036 magnetization       0.3146048

 Broyden mixing:
  rms(total) = 0.75621E-02    rms(broyden)= 0.75596E-02
  rms(prec ) = 0.94533E-02
  weight for this iteration     100.00

 eigenvalues of (default mixing * dielectric matrix)
  average eigenvalue GAMMA=   1.6041
 11.1350  5.0566  3.0559  1.9700  1.4151  1.4151  1.0309  1.0309  0.9256  0.9256
  0.7231  0.7231  0.7288  0.6192  0.3332  0.4274  0.4274  0.4760  0.3980  0.4397
  0.4292

 Free energy of the ion-electron system (eV)
  ---------------------------------------------------
  alpha Z        PSCENC =        66.95074331
  Ewald energy   TEWEN  =    104922.81031962
  -Hartree energ DENC   =   -146679.90957976
  -exchange      EXHF   =         0.00000000
  -V(xc)+E(xc)   XCENC  =      1462.26285892
  PAW double counting   =     42734.70415413   -46276.62894761
  entropy T*S    EENTRO =         0.00000000
  eigenvalues    EBANDS =     -2224.29168086
  atomic energy  EATOM  =     45900.87429371
  Solvation  Ediel_sol  =         0.00000000
  ---------------------------------------------------
  free energy    TOTEN  =       -93.22783853 eV

  energy without entropy =      -93.22783853  energy(sigma->0) =      -93.22783853


--------------------------------------------------------------------------------------------------------




--------------------------------------- Iteration      1(  27)  ---------------------------------------


    POTLOK:  cpu time    0.3280: real time    0.3388
    SETDIJ:  cpu time    0.0080: real time    0.0075
     EDDAV:  cpu time    7.9520: real time    7.9525
       DOS:  cpu time    0.0000: real time    0.0005
    CHARGE:  cpu time    0.1520: real time    0.1524
    MIXING:  cpu time    0.0240: real time    0.0256
    --------------------------------------------
      LOOP:  cpu time    8.4640: real time    8.4775

 eigenvalue-minimisations  :  1464
 total energy-change (2. order) :-0.7636943E-01  (-0.1721151E-03)
 number of electron     363.0000807 magnetization       1.1763984
 augmentation part      232.5861485 magnetization       0.3089059

 Broyden mixing:
  rms(total) = 0.58279E-02    rms(broyden)= 0.58262E-02
  rms(prec ) = 0.73761E-02
  weight for this iteration     100.00

 eigenvalues of (default mixing * dielectric matrix)
  average eigenvalue GAMMA=   1.5951
 11.1129  5.2177  3.0555  2.2116  1.5186  1.5186  1.0690  1.0690  0.9771  0.9771
  0.7233  0.7233  0.7032  0.7032  0.5972  0.3332  0.4276  0.4276  0.3979  0.4527
  0.4527  0.4238

 Free energy of the ion-electron system (eV)
  ---------------------------------------------------
  alpha Z        PSCENC =        66.95074331
  Ewald energy   TEWEN  =    104922.81031962
  -Hartree energ DENC   =   -146676.59065944
  -exchange      EXHF   =         0.00000000
  -V(xc)+E(xc)   XCENC  =      1462.16937922
  PAW double counting   =     42737.20392409   -46279.05293414
  entropy T*S    EENTRO =         0.00000000
  eigenvalues    EBANDS =     -2227.66927434
  atomic energy  EATOM  =     45900.87429371
  Solvation  Ediel_sol  =         0.00000000
  ---------------------------------------------------
  free energy    TOTEN  =       -93.30420796 eV

  energy without entropy =      -93.30420796  energy(sigma->0) =      -93.30420796


--------------------------------------------------------------------------------------------------------




--------------------------------------- Iteration      1(  28)  ---------------------------------------


    POTLOK:  cpu time    0.3280: real time    0.3506
    SETDIJ:  cpu time    0.0080: real time    0.0073
     EDDAV:  cpu time    7.4080: real time    7.4070
       DOS:  cpu time    0.0000: real time    0.0007
    CHARGE:  cpu time    0.1480: real time    0.1482
    MIXING:  cpu time    0.0280: real time    0.0279
    --------------------------------------------
      LOOP:  cpu time    7.9200: real time    7.9416

 eigenvalue-minimisations  :  1336
 total energy-change (2. order) :-0.2321215E-01  (-0.6487164E-04)
 number of electron     363.0000807 magnetization       1.1530305
 augmentation part      232.5836800 magnetization       0.2806270

 Broyden mixing:
  rms(total) = 0.45506E-02    rms(broyden)= 0.45497E-02
  rms(prec ) = 0.57191E-02
  weight for this iteration     100.00

 eigenvalues of (default mixing * dielectric matrix)
  average eigenvalue GAMMA=   1.5735
 11.1187  5.3058  2.9215  2.4939  1.5727  1.5727  1.1226  1.1226  0.9894  0.9894
  0.7280  0.7280  0.7455  0.7455  0.6199  0.3332  0.4878  0.4878  0.4278  0.4278
  0.3973  0.4260  0.4260

 Free energy of the ion-electron system (eV)
  ---------------------------------------------------
  alpha Z        PSCENC =        66.95074331
  Ewald energy   TEWEN  =    104922.81031962
  -Hartree energ DENC   =   -146674.44317593
  -exchange      EXHF   =         0.00000000
  -V(xc)+E(xc)   XCENC  =      1462.14594110
  PAW double counting   =     42738.21250141   -46280.08006734
  entropy T*S    EENTRO =         0.00000000
  eigenvalues    EBANDS =     -2229.79797600
  atomic energy  EATOM  =     45900.87429371
  Solvation  Ediel_sol  =         0.00000000
  ---------------------------------------------------
  free energy    TOTEN  =       -93.32742011 eV

  energy without entropy =      -93.32742011  energy(sigma->0) =      -93.32742011


--------------------------------------------------------------------------------------------------------




--------------------------------------- Iteration      1(  29)  ---------------------------------------


    POTLOK:  cpu time    0.3280: real time    0.3368
    SETDIJ:  cpu time    0.0040: real time    0.0073
     EDDAV:  cpu time    7.6560: real time    7.6548
       DOS:  cpu time    0.0000: real time    0.0006
    CHARGE:  cpu time    0.1520: real time    0.1493
    MIXING:  cpu time    0.0280: real time    0.0299
    --------------------------------------------
      LOOP:  cpu time    8.1680: real time    8.1787

 eigenvalue-minimisations  :  1392
 total energy-change (2. order) :-0.1527419E-01  (-0.4820366E-04)
 number of electron     363.0000807 magnetization       1.1005851
 augmentation part      232.5799773 magnetization       0.2263463

 Broyden mixing:
  rms(total) = 0.28204E-02    rms(broyden)= 0.28196E-02
  rms(prec ) = 0.37720E-02
  weight for this iteration     100.00

 eigenvalues of (default mixing * dielectric matrix)
  average eigenvalue GAMMA=   1.5700
 11.1444  5.3640  3.0377  2.7478  1.5506  1.5506  1.1643  1.1643  0.9916  0.9916
  1.0222  0.7230  0.7230  0.7540  0.7540  0.6025  0.3332  0.4278  0.4278  0.4727
  0.4727  0.3977  0.4312  0.4312

 Free energy of the ion-electron system (eV)
  ---------------------------------------------------
  alpha Z        PSCENC =        66.95074331
  Ewald energy   TEWEN  =    104922.81031962
  -Hartree energ DENC   =   -146672.10947570
  -exchange      EXHF   =         0.00000000
  -V(xc)+E(xc)   XCENC  =      1462.12870871
  PAW double counting   =     42738.57677744   -46280.48340456
  entropy T*S    EENTRO =         0.00000000
  eigenvalues    EBANDS =     -2232.09065683
  atomic energy  EATOM  =     45900.87429371
  Solvation  Ediel_sol  =         0.00000000
  ---------------------------------------------------
  free energy    TOTEN  =       -93.34269430 eV

  energy without entropy =      -93.34269430  energy(sigma->0) =      -93.34269430


--------------------------------------------------------------------------------------------------------




--------------------------------------- Iteration      1(  30)  ---------------------------------------


    POTLOK:  cpu time    0.3280: real time    0.3364
    SETDIJ:  cpu time    0.0080: real time    0.0074
     EDDAV:  cpu time    7.9120: real time    7.9139
       DOS:  cpu time    0.0040: real time    0.0008
    CHARGE:  cpu time    0.1480: real time    0.1491
    MIXING:  cpu time    0.0320: real time    0.0326
    --------------------------------------------
      LOOP:  cpu time    8.4320: real time    8.4401

 eigenvalue-minimisations  :  1456
 total energy-change (2. order) :-0.1141228E-01  (-0.3093441E-04)
 number of electron     363.0000807 magnetization       1.0732736
 augmentation part      232.5801448 magnetization       0.2014297

 Broyden mixing:
  rms(total) = 0.21875E-02    rms(broyden)= 0.21868E-02
  rms(prec ) = 0.27859E-02
  weight for this iteration     100.00

[...]
  0.000  -0.000   0.000  -0.001   0.001  -0.000   0.000  -0.000   0.000  -0.000   0.001   0.000  -0.001   0.000  -0.000   0.000
 -0.000   0.000  -0.000   0.001  -0.000   0.000  -0.000   0.000  -0.000   0.000  -0.001  -0.000   0.000  -0.000   0.000  -0.000
  0.002  -0.000   0.001  -0.005   0.002  -0.000  -0.000  -0.000   0.001  -0.001   0.003   0.000  -0.003   0.002  -0.001   0.000
  0.000  -0.000   0.000  -0.001   0.001  -0.000   0.000  -0.000   0.000  -0.000   0.000   0.000  -0.000   0.000  -0.000  -0.000
 -0.001   0.000  -0.000   0.002  -0.001   0.000  -0.000   0.000  -0.001   0.000  -0.003  -0.000   0.001  -0.001   0.000  -0.000
  0.001  -0.001   0.001  -0.002   0.001  -0.000   0.000  -0.000   0.000  -0.000   0.002   0.000  -0.001   0.000  -0.000   0.000
 -0.001   0.000  -0.000   0.001  -0.000   0.000  -0.000   0.000  -0.000   0.000  -0.001  -0.000   0.000  -0.000  -0.000   0.000
 -0.000   0.000  -0.000   0.000  -0.000   0.000  -0.000   0.000   0.000  -0.000   0.000  -0.000  -0.000   0.000   0.000   0.000
  0.000  -0.000   0.000  -0.000   0.000  -0.000   0.000  -0.000   0.000  -0.000   0.000   0.000  -0.000   0.000  -0.000  -0.000
 -0.000   0.000  -0.000   0.000  -0.000  -0.000   0.000  -0.000   0.000   0.000   0.000   0.000   0.000  -0.000  -0.000  -0.000


------------------------ aborting loop because EDIFF is reached ----------------------------------------


 


 total charge     
 
# of ion       s       p       d       tot
------------------------------------------
    1        0.463   0.146   9.281   9.889
    2        0.458   0.225   9.242   9.924
    3        0.454   0.191   9.257   9.902
    4        0.473   0.303   9.211   9.988
    5        0.441   0.329   9.196   9.966
    6        0.476   0.142   9.278   9.896
    7        0.424   0.266   9.213   9.903
    8        0.451   0.266   9.226   9.943
    9        0.469   0.385   9.202  10.057
   10        0.452   0.205   9.254   9.910
   11        0.450   0.207   9.261   9.918
   12        0.503   0.100   9.285   9.889
   13        0.450   0.356   9.196  10.003
   14        0.494   0.102   9.286   9.881
   15        0.463   0.394   9.205  10.062
   16        0.432   0.204   9.259   9.896
   17        0.457   0.295   9.209   9.961
   18        0.437   0.308   9.206   9.951
   19        0.427   0.346   9.188   9.961
   20        0.492   0.137   9.271   9.900
   21        0.455   0.247   9.232   9.934
   22        0.448   0.231   9.237   9.916
   23        0.493   0.127   9.271   9.892
   24        0.445   0.270   9.220   9.935
   25        0.452   0.266   9.234   9.952
   26        0.448   0.350   9.204  10.001
   27        0.470   0.180   9.257   9.907
   28        0.482   0.132   9.273   9.886
   29        0.456   0.222   9.236   9.914
   30        0.457   0.399   9.204  10.060
   31        0.456   0.256   9.225   9.937
   32        0.445   0.199   9.263   9.907
   33        0.458   0.261   9.227   9.946
--------------------------------------------------
tot         15.130   8.047 304.809 327.986
 


 magnetization (x)
 
# of ion       s       p       d       tot
------------------------------------------
    1        0.001   0.001   0.008   0.010
    2        0.002   0.003   0.010   0.014
    3        0.008  -0.000   0.004   0.012
    4        0.001   0.006   0.007   0.013
    5        0.003   0.005   0.007   0.015
    6        0.039   0.004   0.001   0.043
    7       -0.000   0.003   0.002   0.005
    8        0.013   0.002   0.004   0.018
    9        0.004  -0.000   0.011   0.014
   10        0.002   0.005   0.005   0.012
   11        0.015   0.015   0.011   0.041
   12        0.002   0.001   0.003   0.006
   13        0.001   0.006  -0.001   0.007
   14       -0.001   0.002   0.011   0.012
   15        0.000   0.004   0.001   0.005
   16       -0.000   0.008   0.010   0.019
   17        0.000   0.006   0.012   0.018
   18        0.016   0.002  -0.001   0.018
   19       -0.000   0.005   0.013   0.018
   20        0.006   0.005   0.008   0.019
   21       -0.000   0.003   0.006   0.009
   22        0.018   0.008   0.000   0.026
   23        0.019   0.005   0.003   0.027
   24        0.004   0.001   0.010   0.015
   25        0.001   0.003   0.009   0.013
   26        0.006   0.003   0.002   0.011
   27       -0.000   0.003   0.006   0.008
   28       -0.000   0.002   0.012   0.014
   29        0.004   0.008   0.002   0.014
   30        0.003   0.002   0.024   0.029
   31       -0.000   0.006   0.008   0.014
   32       -0.001   0.002   0.002   0.003
   33       -0.000   0.009   0.008   0.016
--------------------------------------------------
tot          0.164   0.136   0.217   0.517
 
    CHARGE:  cpu time    0.1440: real time    0.1429
    FORLOC:  cpu time    0.0240: real time    0.0227
    FORNL :  cpu time    3.3160: real time    3.3174
    STRESS:  cpu time    5.5560: real time    5.5579
    FORCOR:  cpu time    0.3240: real time    0.3218
    FORHAR:  cpu time    0.0520: real time    0.0541
    MIXING:  cpu time    0.0640: real time    0.0626
    OFIELD:  cpu time    0.0000: real time    0.0001

  FORCE on cell =-STRESS in cart. coord.  units (eV):
  Direction    XX          YY          ZZ          XY          YZ          ZX
  --------------------------------------------------------------------------------------
  Alpha Z    66.95074    66.95074    66.95074
  Ewald   36305.10832 37936.18012 30681.45915 10358.03884 -3110.00959 -4301.23511
  Hartree 50162.89373 51762.74678 44739.45362  9779.50628 -2909.09071 -4047.62685
  E(xc)   -2118.32867 -2118.47306 -2118.60274     0.54972    -0.23756    -0.21273
  Local  -89732.64040-92959.69207-78680.72362-20136.00695  6014.72307  8346.86689
  n-local  -772.07224  -773.51111  -773.44226     1.42710    -0.01150    -0.51503
  augment  3103.64889  3102.49091  3102.05011    -1.50108     2.20076     1.20915
  Kinetic  2975.24567  2973.58955  2973.68573    -2.46484     2.55508     1.79218
  Fock        0.00000     0.00000     0.00000     0.00000     0.00000     0.00000
  -------------------------------------------------------------------------------------
  Total      -9.19396    -9.71814    -9.16926    -0.45094     0.12955     0.27850
  in kB      -1.23831    -1.30891    -1.23498    -0.06074     0.01745     0.03751
  external pressure =       -1.26 kB  Pullay stress =        0.00 kB


 VOLUME and BASIS-vectors are now :
 -----------------------------------------------------------------------------
  energy-cutoff  :      295.45
  volume of cell :    11895.55
      direct lattice vectors                 reciprocal lattice vectors
    22.827669000  0.000000000  0.000000000     0.043806488  0.000000000  0.000000000
     0.000000000 22.827669000  0.000000000     0.000000000  0.043806488  0.000000000
     0.000000000  0.000000000 22.827669000     0.000000000  0.000000000  0.043806488

  length of vectors
    22.827669000 22.827669000 22.827669000     0.043806488  0.043806488  0.043806488


 FORCES acting on ions
    electron-ion (+dipol)            ewald-force                    non-local-force                 convergence-correction
 -----------------------------------------------------------------------------------------------
   0.166E+04 -.121E+04 -.263E+03   -.166E+04 0.120E+04 0.264E+03   -.631E+01 0.831E+01 -.153E+01   0.110E-03 -.938E-04 -.206E-04
   0.200E+03 -.184E+04 -.689E+03   -.199E+03 0.183E+04 0.687E+03   -.140E+01 0.601E+01 0.198E+01   0.215E-04 0.681E-05 -.126E-04
   -.186E+04 -.420E+03 -.747E+03   0.185E+04 0.419E+03 0.743E+03   0.561E+01 0.120E+01 0.351E+01   -.469E-04 -.370E-04 0.346E-04
   0.107E+04 -.577E+03 -.143E+04   -.107E+04 0.577E+03 0.143E+04   -.135E+01 0.152E-01 0.162E+01   -.874E-04 -.484E-04 -.991E-04
   0.131E+04 -.526E+03 0.808E+03   -.131E+04 0.527E+03 -.808E+03   -.722E+00 -.834E+00 0.284E-01   0.794E-04 -.283E-04 -.152E-04
   0.147E+04 0.387E+03 -.126E+04   -.146E+04 -.387E+03 0.126E+04   -.792E+01 -.105E+00 0.619E+01   -.361E-04 -.835E-04 -.877E-04
   -.163E+04 0.804E+03 0.190E+03   0.163E+04 -.802E+03 -.188E+03   0.231E+01 -.167E+01 -.136E+01   -.439E-04 0.662E-05 -.297E-04
   -.682E+03 0.158E+04 0.825E+03   0.679E+03 -.158E+04 -.824E+03   0.288E+01 -.276E+01 -.107E+01   0.123E-04 0.855E-04 -.191E-03
   -.962E+03 0.356E+03 -.939E+03   0.963E+03 -.357E+03 0.938E+03   -.786E+00 0.106E+01 0.132E+01   -.765E-04 0.114E-03 -.347E-04
   -.184E+04 -.792E+03 0.407E+03   0.183E+04 0.788E+03 -.405E+03   0.560E+01 0.442E+01 -.212E+01   -.221E-04 -.335E-04 -.487E-04
   0.563E+03 -.525E+03 0.197E+04   -.560E+03 0.522E+03 -.196E+04   -.323E+01 0.324E+01 -.647E+01   0.996E-05 -.807E-04 0.107E-03
   0.585E+03 -.166E+04 0.527E+03   -.578E+03 0.165E+04 -.522E+03   -.648E+01 0.842E+01 -.445E+01   0.333E-04 0.278E-04 0.172E-04
   0.813E+03 0.123E+04 0.734E+03   -.813E+03 -.123E+04 -.734E+03   0.229E+00 -.137E-01 -.629E-01   -.122E-03 -.237E-04 -.126E-03
   0.542E+03 0.175E+04 0.335E+03   -.540E+03 -.174E+04 -.331E+03   -.228E+01 -.104E+02 -.444E+01   -.542E-04 0.174E-03 0.462E-04
   -.864E+03 -.106E+04 -.106E+03   0.864E+03 0.107E+04 0.106E+03   -.297E+00 -.114E+01 -.186E+00   -.100E-03 0.496E-05 0.208E-04
   0.538E+02 0.939E+03 -.176E+04   -.568E+02 -.934E+03 0.175E+04   0.302E+01 -.412E+01 0.545E+01   -.539E-04 -.791E-04 0.566E-04
   -.728E+03 -.738E+03 0.158E+04   0.727E+03 0.739E+03 -.158E+04   0.830E+00 -.103E+01 -.217E+01   -.637E-04 -.868E-05 0.783E-04
   0.830E+03 -.123E+04 0.844E+03   -.829E+03 0.123E+04 -.843E+03   -.160E+00 0.174E+01 -.725E+00   0.140E-04 -.430E-04 0.600E-04
   0.629E+03 -.100E+04 -.708E+03   -.629E+03 0.100E+04 0.707E+03   -.255E+00 -.217E-01 0.368E+00   0.315E-04 0.131E-04 -.416E-04
   -.153E+04 0.340E+03 0.124E+04   0.152E+04 -.338E+03 -.123E+04   0.771E+01 -.256E+01 -.649E+01   0.438E-04 -.726E-04 -.320E-05
   -.419E+03 -.139E+04 -.142E+04   0.417E+03 0.139E+04 0.141E+04   0.133E+01 0.245E+01 0.492E+01   -.789E-04 -.265E-04 -.689E-04
   -.673E+03 0.852E+03 0.173E+04   0.671E+03 -.848E+03 -.173E+04   0.173E+01 -.377E+01 -.409E+01   -.955E-04 -.755E-04 0.956E-04
   -.110E+04 -.835E+02 -.167E+04   0.109E+04 0.866E+02 0.166E+04   0.584E+01 -.310E+01 0.839E+01   0.247E-04 0.212E-04 0.166E-04
   0.183E+04 0.166E+03 -.936E+02   -.183E+04 -.165E+03 0.931E+02   -.212E+01 -.397E+00 0.449E+00   -.488E-04 -.759E-04 0.515E-04
   0.110E+04 0.139E+04 -.690E+03   -.110E+04 -.139E+04 0.688E+03   -.276E+01 -.302E+01 0.202E+01   -.150E-03 0.960E-05 0.787E-05
   0.104E+03 0.577E+03 -.563E+03   -.105E+03 -.577E+03 0.563E+03   0.596E+00 0.318E-01 0.544E+00   0.339E-04 0.839E-04 -.765E-05
   -.135E+04 0.141E+04 -.671E+03   0.135E+04 -.141E+04 0.667E+03   0.619E+01 -.175E+01 0.425E+01   0.253E-05 0.503E-04 0.846E-05
   0.167E+04 0.348E+03 0.115E+04   -.166E+04 -.347E+03 -.114E+04   -.870E+01 -.951E+00 -.546E+01   0.178E-03 0.890E-05 0.112E-03
   -.283E+02 -.160E+03 -.196E+04   0.273E+02 0.159E+03 0.195E+04   0.998E+00 0.979E+00 0.530E+01   0.126E-03 0.378E-04 -.681E-04
   -.150E+03 0.835E+02 0.551E+03   0.150E+03 -.829E+02 -.550E+03   0.760E+00 -.618E+00 -.164E+01   -.439E-04 -.211E-04 -.898E-04
   -.449E+03 0.183E+04 -.512E+03   0.448E+03 -.183E+04 0.510E+03   0.712E+00 -.477E+01 0.192E+01   -.848E-05 -.411E-04 0.240E-04
   -.744E+03 -.165E+04 0.836E+03   0.740E+03 0.165E+04 -.834E+03   0.445E+01 0.626E+01 -.162E+01   -.311E-04 0.501E-04 0.423E-04
   0.549E+03 0.832E+03 0.176E+04   -.547E+03 -.830E+03 -.176E+04   -.128E+01 -.210E+01 -.411E+01   0.521E-04 -.565E-05 0.778E-04
 -----------------------------------------------------------------------------------------------
   -.465E+01 0.806E+00 -.325E+00   0.000E+00 -.455E-12 0.000E+00   0.475E+01 -.987E+00 0.254E+00   -.391E-03 -.183E-03 -.873E-04
 
 
 POSITION                                       TOTAL-FORCE (eV/Angst)
 -----------------------------------------------------------------------------------
      8.34767     12.91108     12.10096         0.018740     -0.000841     -0.025767
     11.63474     15.17795     11.97258        -0.016830     -0.017900      0.000408
     15.02461     12.67830     12.66007         0.025749     -0.026652     -0.002135
      9.24908     11.53665     13.82643        -0.004221      0.043618      0.006731
      9.44945     11.73401     10.30966        -0.010384     -0.034487     -0.028153
      7.79054      9.74754     14.35149        -0.006458     -0.006234     -0.045618
     14.21262     10.95768     10.72868        -0.002441      0.006024      0.028926
     12.03701      9.04654     10.29572         0.011216      0.002114     -0.007999
     13.01518     11.41701     12.80513        -0.001907      0.002890     -0.033796
     15.26705     13.16389     10.24837         0.001883     -0.012029      0.009350
     10.97902     12.25194      8.20035        -0.030501      0.043016      0.003478
     10.87502     16.26909      9.99080        -0.021468     -0.027596      0.003168
      9.56312      8.86049     10.65535         0.026658     -0.001578     -0.011471
      9.36471      6.54941     11.19041         0.011696      0.033036     -0.014360
     13.14099     13.39539     11.31162        -0.017449     -0.009028      0.046199
     10.25993      9.40201     14.47594        -0.030877      0.046321     -0.020543
     13.26043     12.90749      8.85145        -0.012430     -0.031493     -0.000413
     10.91560     13.82595     10.05561        -0.015559      0.012578     -0.012167
     10.79435     12.79635     12.35498         0.004637     -0.003099     -0.012410
     15.14936     11.40962      8.54417        -0.026433     -0.024504     -0.027279
     12.69476     13.75186     13.66766         0.011872     -0.017364      0.026642
     12.83683     10.52208      8.41602         0.000972     -0.010997     -0.001451
     13.98352     12.18123     14.89677        -0.018743     -0.014789      0.065826
      8.12029     10.43695     11.95080         0.009891     -0.016401     -0.016022
      8.83675      8.20301     12.86089        -0.027178      0.022789      0.014052
     10.88925     10.23469     12.35158         0.018800      0.027472     -0.018294
     13.20468      9.08573     12.36802         0.017800     -0.010202     -0.015171
      7.92825     10.10752      9.44287         0.003573      0.020807      0.009185
     11.51060     11.64947     14.61780         0.026908     -0.011729      0.034247
     11.80915     11.46644     10.41883         0.033362      0.006082     -0.011548
     11.16245      7.79517     12.27602        -0.008647      0.015647      0.058369
     12.98044     15.16291      9.71952         0.004941     -0.000251     -0.008160
     10.36911     10.02108      8.73998         0.022827     -0.005217      0.006178
 -----------------------------------------------------------------------------------
    total drift:                                0.097775     -0.180924     -0.070927


--------------------------------------------------------------------------------------------------------



  FREE ENERGIE OF THE ION-ELECTRON SYSTEM (eV)
  ---------------------------------------------------
  free  energy   TOTEN  =       -93.37450858 eV

  energy  without entropy=      -93.37450858  energy(sigma->0) =      -93.37450858
 


--------------------------------------------------------------------------------------------------------


    POTLOK:  cpu time    0.3360: real time    0.3348


--------------------------------------------------------------------------------------------------------




--------------------------------------------------------------------------------------------------------


  
 reached required accuracy - stopping structural energy minimisation
     LOOP+:  cpu time  335.1880: real time  335.6562
    4ORBIT:  cpu time    0.0000: real time    0.0000
 


 total charge     
 
# of ion       s       p       d       tot
------------------------------------------
    1        0.463   0.146   9.281   9.889
    2        0.458   0.225   9.242   9.924
    3        0.454   0.191   9.257   9.902
    4        0.473   0.303   9.211   9.988
    5        0.441   0.329   9.196   9.966
    6        0.476   0.142   9.278   9.896
    7        0.424   0.266   9.213   9.903
    8        0.451   0.266   9.226   9.943
    9        0.469   0.385   9.202  10.057
   10        0.452   0.205   9.254   9.910
   11        0.450   0.207   9.261   9.918
   12        0.503   0.100   9.285   9.889
   13        0.450   0.356   9.196  10.003
   14        0.494   0.102   9.286   9.881
   15        0.463   0.394   9.205  10.062
   16        0.432   0.204   9.259   9.896
   17        0.457   0.295   9.209   9.961
   18        0.437   0.308   9.206   9.951
   19        0.427   0.346   9.188   9.961
   20        0.492   0.137   9.271   9.900
   21        0.455   0.247   9.232   9.934
   22        0.448   0.231   9.237   9.916
   23        0.493   0.127   9.271   9.892
   24        0.445   0.270   9.220   9.935
   25        0.452   0.266   9.234   9.952
   26        0.448   0.350   9.204  10.001
   27        0.470   0.180   9.257   9.907
   28        0.482   0.132   9.273   9.886
   29        0.456   0.222   9.236   9.914
   30        0.457   0.399   9.204  10.060
   31        0.456   0.256   9.225   9.937
   32        0.445   0.199   9.263   9.907
   33        0.458   0.261   9.227   9.946
--------------------------------------------------
tot         15.130   8.047 304.809 327.986
 


 magnetization (x)
 
# of ion       s       p       d       tot
------------------------------------------
    1        0.001   0.001   0.008   0.010
    2        0.002   0.003   0.010   0.014
    3        0.008  -0.000   0.004   0.012
    4        0.001   0.006   0.007   0.013
    5        0.003   0.005   0.007   0.015
    6        0.039   0.004   0.001   0.043
    7       -0.000   0.003   0.002   0.005
    8        0.013   0.002   0.004   0.018
    9        0.004  -0.000   0.011   0.014
   10        0.002   0.005   0.005   0.012
   11        0.015   0.015   0.011   0.041
   12        0.002   0.001   0.003   0.006
   13        0.001   0.006  -0.001   0.007
   14       -0.001   0.002   0.011   0.012
   15        0.000   0.004   0.001   0.005
   16       -0.000   0.008   0.010   0.019
   17        0.000   0.006   0.012   0.018
   18        0.016   0.002  -0.001   0.018
   19       -0.000   0.005   0.013   0.018
   20        0.006   0.005   0.008   0.019
   21       -0.000   0.003   0.006   0.009
   22        0.018   0.008   0.000   0.026
   23        0.019   0.005   0.003   0.027
   24        0.004   0.001   0.010   0.015
   25        0.001   0.003   0.009   0.013
   26        0.006   0.003   0.002   0.011
   27       -0.000   0.003   0.006   0.008
   28       -0.000   0.002   0.012   0.014
   29        0.004   0.008   0.002   0.014
   30        0.003   0.002   0.024   0.029
   31       -0.000   0.006   0.008   0.014
   32       -0.001   0.002   0.002   0.003
   33       -0.000   0.009   0.008   0.016
--------------------------------------------------
tot          0.164   0.136   0.217   0.517
 

 total amount of memory used by VASP MPI-rank0    75585. kBytes
=======================================================================

   base      :      30000. kBytes
   nonl-proj :       4190. kBytes
   fftplans  :       7878. kBytes
   grid      :      20041. kBytes
   one-center:         46. kBytes
   wavefun   :      13430. kBytes
 
  
  
 General timing and accounting informations for this job:
 ========================================================
  
                  Total CPU time used (sec):      341.680
                            User time (sec):      338.992
                          System time (sec):        2.688
                         Elapsed time (sec):      441.549
  
                   Maximum memory used (kb):       39868.
                   Average memory used (kb):           0.
  
                          Minor page faults:        16329
                          Major page faults:           24
                 Voluntary context switches:          564
