 vasp.5.4.4.18Apr17-6-g9f103f2a35 (build Jan 10 2020 15:46:39) gamma-only       
  
 executed on             LinuxIFC date 2022.06.21  22:41:28
 running on   48 total cores
 distrk:  each k-point on   48 cores,    1 groups
 distr:  one band on NCORES_PER_BAND=  12 cores,    4 groups


--------------------------------------------------------------------------------------------------------


 INCAR:
 POTCAR:    PAW_PBE Cu 22Jun2005                  
 POTCAR:    PAW_PBE Cu 22Jun2005                  
   VRHFIN =Cu: d10 p1                                                           
   LEXCH  = PE                                                                  
   EATOM  =  1390.9808 eV,  102.2342 Ry                                         
                                                                                
   TITEL  = PAW_PBE Cu 22Jun2005                                                
   LULTRA =        F    use ultrasoft PP ?                                      
   IUNSCR =        1    unscreen: 0-lin 1-nonlin 2-no                           
   RPACOR =    2.000    partial core radius                                     
   POMASS =   63.546; ZVAL   =   11.000    mass and valenz                      
   RCORE  =    2.300    outmost cutoff radius                                   
   RWIGS  =    2.200; RWIGS  =    1.164    wigner-seitz radius (au A)           
   ENMAX  =  295.446; ENMIN  =  221.585 eV                                      
   ICORE  =        3    local potential                                         
   LCOR   =        T    correct aug charges                                     
   LPAW   =        T    paw PP                                                  
   EAUG   =  586.980                                                            
   DEXC   =    0.000                                                            
   RMAX   =    2.344    core radius for proj-oper                               
   RAUG   =    1.300    factor for augmentation sphere                          
   RDEP   =    2.302    radius for radial grids                                 
   RDEPT  =    1.771    core radius for aug-charge                              
                                                                                
   Atomic configuration                                                         
    9 entries                                                                   
     n  l   j            E        occ.                                          
     1  0  0.50     -8850.2468   2.0000                                         
     2  0  0.50     -1062.3498   2.0000                                         
     2  1  1.50      -916.8226   6.0000                                         
     3  0  0.50      -114.6929   2.0000                                         
     3  1  1.50       -72.1325   6.0000                                         
     3  2  2.50        -5.0394  10.0000                                         
     4  0  0.50        -4.6097   1.0000                                         
     4  1  0.50        -4.0817   0.0000                                         
     4  3  2.50        -1.3606   0.0000                                         
   Description                                                                  
     l       E           TYP  RCUT    TYP  RCUT                                 
     2     -5.0393973     23  2.200                                             
     2     10.8846608     23  2.200                                             
     0     -4.6097109     23  2.200                                             
     0      8.2520465     23  2.200                                             
     1     -2.7211652     23  2.200                                             
     1     21.7055443     23  2.200                                             
     3      2.7211652     23  2.300                                             
  local pseudopotential read in
  partial core-charges read in
  partial kinetic energy density read in
  atomic valenz-charges read in
  non local Contribution for L=           2  read in
    real space projection operators read in
  non local Contribution for L=           2  read in
    real space projection operators read in
  non local Contribution for L=           0  read in
    real space projection operators read in
  non local Contribution for L=           0  read in
    real space projection operators read in
  non local Contribution for L=           1  read in
    real space projection operators read in
  non local Contribution for L=           1  read in
    real space projection operators read in
    PAW grid and wavefunctions read in
 
   number of l-projection  operators is LMAX  =           6
   number of lm-projection operators is LMMAX =          18
 

 ----------------------------------------------------------------------------- 
|                                                                             |
|  ADVICE TO THIS USER RUNNING 'VASP/VAMP'   (HEAR YOUR MASTER'S VOICE ...):  |
|                                                                             |
|      You have a (more or less) 'large supercell' and for larger cells       |
|      it might be more efficient to use real space projection opertators     |
|      So try LREAL= Auto  in the INCAR   file.                               |
|      Mind:          For very  accurate calculation you might also keep the  |
|      reciprocal projection scheme          (i.e. LREAL=.FALSE.)             |
|                                                                             |
 ----------------------------------------------------------------------------- 

  PAW_PBE Cu 22Jun2005                  :
 energy of atom  1       EATOM=-1390.9808
 kinetic energy error for atom=    0.0452 (will be added to EATOM!!)
 
 
 POSCAR: unknown system                          
  positions in direct lattice
  velocities in cartesian coordinates
 exchange correlation table for  LEXCH =        8
   RHO(1)=    0.500       N(1)  =     2000
   RHO(2)=  100.500       N(2)  =     4000
 


--------------------------------------------------------------------------------------------------------


 ion  position               nearest neighbor table
   1  0.656  0.491  0.536-  13 2.36   5 2.44   3 2.49   4 2.50   8 2.60   2 2.76
   2  0.575  0.579  0.586-   5 2.40   3 2.42  12 2.45  14 2.47  18 2.54  23 2.58  13 2.60   1 2.76

   3  0.589  0.564  0.474-   2 2.42   6 2.44   7 2.45   1 2.49  13 2.51   4 2.53  15 2.56  14 2.66

   4  0.626  0.461  0.426-  20 2.39   1 2.50   3 2.53  10 2.54  11 2.54   6 2.58
   5  0.631  0.502  0.648-   2 2.40   8 2.41  12 2.44   1 2.44  22 2.44
   6  0.562  0.543  0.364-  10 2.42   3 2.44   7 2.48  17 2.48   9 2.53  15 2.55   4 2.58  20 2.72

   7  0.534  0.645  0.414-  14 2.37   9 2.37   3 2.45   6 2.48  15 2.57  21 2.68
   8  0.614  0.398  0.605-  11 2.39   5 2.41  22 2.48  27 2.49  13 2.58   1 2.60
   9  0.462  0.604  0.338-   7 2.37  26 2.40  17 2.43   6 2.53  21 2.54  15 2.62
  10  0.568  0.436  0.324-  16 2.41   6 2.42  20 2.45  17 2.51   4 2.54  19 2.60
  11  0.591  0.372  0.498-  16 2.37   8 2.39  13 2.45  27 2.51   4 2.54  25 2.65  20 2.66
  12  0.545  0.562  0.696-   5 2.44  28 2.44  22 2.44   2 2.45  18 2.46
  13  0.547  0.472  0.535-   1 2.36  23 2.41  11 2.45  20 2.47   3 2.51  27 2.54   8 2.58  22 2.59
                             2 2.60  32 2.63
  14  0.500  0.639  0.520-   7 2.37  18 2.44   2 2.47  23 2.49  24 2.53  21 2.55  15 2.59   3 2.66

  15  0.474  0.546  0.446-  20 2.41  21 2.42  30 2.48   6 2.55   3 2.56   7 2.57  14 2.59  23 2.59
                             9 2.62  26 2.67  17 2.73
  16  0.571  0.345  0.392-  11 2.37  10 2.41  19 2.46  20 2.49  25 2.62
  17  0.463  0.490  0.331-   9 2.43  29 2.47  26 2.48   6 2.48  19 2.51  10 2.51  20 2.53  15 2.73

  18  0.478  0.632  0.632-  23 2.42  14 2.44  12 2.46   2 2.54  28 2.55  24 2.56
  19  0.467  0.373  0.350-  20 2.41  16 2.46  29 2.47  17 2.51  25 2.53  10 2.60
  20  0.515  0.442  0.427-  25 2.37   4 2.39  19 2.41  15 2.41  10 2.45  13 2.47  16 2.49  17 2.53
                            29 2.54  11 2.66   6 2.72  32 2.72
  21  0.411  0.640  0.440-  15 2.42  24 2.49   9 2.54  14 2.55  26 2.55  30 2.65   7 2.68
  22  0.525  0.457  0.654-  31 2.40  12 2.44   5 2.44   8 2.48  28 2.49  27 2.52  13 2.59
  23  0.462  0.539  0.567-  33 2.38  13 2.41  18 2.42  24 2.43  28 2.44  32 2.44  14 2.49   2 2.58
                            15 2.59  30 2.73
  24  0.387  0.624  0.553-  23 2.43  30 2.47  21 2.49  14 2.53  18 2.56  33 2.60
  25  0.473  0.346  0.466-  20 2.37  32 2.48  27 2.50  19 2.53  16 2.62  11 2.65
  26  0.371  0.548  0.373-  30 2.38   9 2.40  29 2.46  17 2.48  21 2.55  15 2.67
  27  0.504  0.368  0.577-  31 2.46   8 2.49  25 2.50  32 2.50  11 2.51  22 2.52  13 2.54
  28  0.436  0.529  0.679-  12 2.44  23 2.44  31 2.46  22 2.49  33 2.50  18 2.55
  29  0.396  0.442  0.413-  32 2.39  26 2.46  17 2.47  19 2.47  20 2.54  30 2.55
  30  0.364  0.533  0.484-  26 2.38  33 2.39  24 2.47  15 2.48  32 2.55  29 2.55  21 2.65  23 2.73

  31  0.419  0.424  0.633-  32 2.40  22 2.40  33 2.44  27 2.46  28 2.46
  32  0.428  0.439  0.521-  29 2.39  31 2.40  23 2.44  25 2.48  27 2.50  30 2.55  13 2.63  33 2.69
                            20 2.72
  33  0.356  0.513  0.595-  23 2.38  30 2.39  31 2.44  28 2.50  24 2.60  32 2.69
 
  LATTYP: Found a simple cubic cell.
 ALAT       =    21.2103570000
  
  Lattice vectors:
  
 A1 = (  21.2103570000,   0.0000000000,   0.0000000000)
 A2 = (   0.0000000000,  21.2103570000,   0.0000000000)
 A3 = (   0.0000000000,   0.0000000000,  21.2103570000)


Analysis of symmetry for initial positions (statically):
=====================================================================
 Subroutine PRICEL returns:
 Original cell was already a primitive cell.
 

 Routine SETGRP: Setting up the symmetry group for a 
 simple cubic supercell.


 Subroutine GETGRP returns: Found  1 space group operations
 (whereof  1 operations were pure point group operations)
 out of a pool of 48 trial point group operations.


The static configuration has the point symmetry C_1 .


Analysis of symmetry for dynamics (positions and initial velocities):
=====================================================================
 Subroutine PRICEL returns:
 Original cell was already a primitive cell.
 

 Routine SETGRP: Setting up the symmetry group for a 
 simple cubic supercell.


 Subroutine GETGRP returns: Found  1 space group operations
 (whereof  1 operations were pure point group operations)
 out of a pool of 48 trial point group operations.


The dynamic configuration has the point symmetry C_1 .


Analysis of structural, dynamic, and magnetic symmetry:
=====================================================================
 Subroutine PRICEL returns:
 Original cell was already a primitive cell.
 

 Routine SETGRP: Setting up the symmetry group for a 
 simple cubic supercell.


 Subroutine GETGRP returns: Found  1 space group operations
 (whereof  1 operations were pure point group operations)
 out of a pool of 48 trial point group operations.


The magnetic configuration has the point symmetry C_1 .


 Subroutine INISYM returns: Found  1 space group operations
 (whereof  1 operations are pure point group operations),
 and found     1 'primitive' translations

 
 
 KPOINTS: Gamma-point only                        
  k-points in reciprocal lattice
Space group operators:
 irot       det(A)        alpha          n_x          n_y          n_z        tau_x        tau_y        tau_z
    1     1.000000     0.000000     1.000000     0.000000     0.000000     0.000000     0.000000     0.000000


--------------------------------------------------------------------------------------------------------




 Dimension of arrays:
   k-points           NKPTS =      1   k-points in BZ     NKDIM =      1   number of bands    NBANDS=    268
   number of dos      NEDOS =    301   number of ions     NIONS =     33
   non local maximal  LDIM  =      6   non local SUM 2l+1 LMDIM =     18
   total plane-waves  NPLWV = 729000
   max r-space proj   IRMAX =      1   max aug-charges    IRDMAX=   2412
   dimension x,y,z NGX =    90 NGY =   90 NGZ =   90
   dimension x,y,z NGXF=   180 NGYF=  180 NGZF=  180
   support grid    NGXF=   180 NGYF=  180 NGZF=  180
   ions per type =              33
   NGX,Y,Z   is equivalent  to a cutoff of   7.05,  7.05,  7.05 a.u.
   NGXF,Y,Z  is equivalent  to a cutoff of  14.11, 14.11, 14.11 a.u.

 SYSTEM =  unknown system                          
 POSCAR =  unknown system                          

 Startparameter for this run:
   NWRITE =      2    write-flag & timer
   PREC   = normal    normal or accurate (medium, high low for compatibility)
   ISTART =      0    job   : 0-new  1-cont  2-samecut
   ICHARG =      2    charge: 1-file 2-atom 10-const
   ISPIN  =      2    spin polarized calculation?
   LNONCOLLINEAR =      F non collinear calculations
   LSORBIT =      F    spin-orbit coupling
   INIWAV =      1    electr: 0-lowe 1-rand  2-diag
   LASPH  =      F    aspherical Exc in radial PAW
   METAGGA=      F    non-selfconsistent MetaGGA calc.

 Electronic Relaxation 1
   ENCUT  =  295.4 eV  21.71 Ry    4.66 a.u.  29.73 29.73 29.73*2*pi/ulx,y,z
   ENINI  =  295.4     initial cutoff
   ENAUG  =  587.0 eV  augmentation charge cutoff
   NELM   =     60;   NELMIN=  2; NELMDL=  0     # of ELM steps 
   EDIFF  = 0.1E-05   stopping-criterion for ELM
   LREAL  =      F    real-space projection
   NLSPLINE    = F    spline interpolate recip. space projectors
   LCOMPAT=      F    compatible to vasp.4.4
   GGA_COMPAT  = T    GGA compatible to vasp.4.4-vasp.4.6
   LMAXPAW     = -100 max onsite density
   LMAXMIX     =    2 max onsite mixed and CHGCAR
   VOSKOWN=      0    Vosko Wilk Nusair interpolation
   ROPT   =    0.00000
 Ionic relaxation
   EDIFFG = -.3E-01   stopping-criterion for IOM
   NSW    =    100    number of steps for IOM
   NBLOCK =      1;   KBLOCK =    100    inner block; outer block 
   IBRION =      2    ionic relax: 0-MD 1-quasi-New 2-CG
   NFREE  =      1    steps in history (QN), initial steepest desc. (CG)
   ISIF   =      2    stress and relaxation
   IWAVPR =     11    prediction:  0-non 1-charg 2-wave 3-comb
   ISYM   =      2    0-nonsym 1-usesym 2-fastsym
   LCORR  =      T    Harris-Foulkes like correction to forces

   POTIM  = 0.5000    time-step for ionic-motion
   TEIN   =    0.0    initial temperature
   TEBEG  =    0.0;   TEEND  =   0.0 temperature during run
   SMASS  =  -3.00    Nose mass-parameter (am)
   estimated Nose-frequenzy (Omega)   =  0.10E-29 period in steps =****** mass=  -0.103E-25a.u.
   SCALEE = 1.0000    scale energy and forces
   NPACO  =    256;   APACO  = 16.0  distance and # of slots for P.C.
   PSTRESS=    0.0 pullay stress

  Mass of Ions in am
   POMASS =  63.55
  Ionic Valenz
   ZVAL   =  11.00
  Atomic Wigner-Seitz radii
   RWIGS  =  -1.00
  virtual crystal weights 
   VCA    =   1.00
   NELECT =     363.0000    total number of electrons
   NUPDOWN=      -1.0000    fix difference up-down

 DOS related values:
   EMIN   =  10.00;   EMAX   =-10.00  energy-range for DOS
   EFERMI =   0.00
   ISMEAR =     0;   SIGMA  =   0.00  broadening in eV -4-tet -1-fermi 0-gaus

 Electronic relaxation 2 (details)
   IALGO  =     38    algorithm
   LDIAG  =      T    sub-space diagonalisation (order eigenvalues)
   LSUBROT=      F    optimize rotation matrix (better conditioning)
   TURBO    =      0    0=normal 1=particle mesh
   IRESTART =      0    0=no restart 2=restart with 2 vectors
   NREBOOT  =      0    no. of reboots
   NMIN     =      0    reboot dimension
   EREF     =   0.00    reference energy to select bands
   IMIX   =      4    mixing-type and parameters
     AMIX     =   0.40;   BMIX     =  1.00
     AMIX_MAG =   1.60;   BMIX_MAG =  1.00
     AMIN     =   0.10
     WC   =   100.;   INIMIX=   1;  MIXPRE=   1;  MAXMIX= -45

 Intra band minimization:
   WEIMIN = 0.0010     energy-eigenvalue tresh-hold
   EBREAK =  0.93E-09  absolut break condition
   DEPER  =   0.30     relativ break condition  

   TIME   =   0.40     timestep for ELM

  volume/ion in A,a.u.               =     289.15      1951.31
  Fermi-wavevector in a.u.,A,eV,Ry     =   0.550591  1.040466  4.124611  0.303150
  Thomas-Fermi vector in A             =   1.582226
 
 Write flags
   LWAVE        =      F    write WAVECAR
   LDOWNSAMPLE  =      F    k-point downsampling of WAVECAR
   LCHARG       =      F    write CHGCAR
   LVTOT        =      F    write LOCPOT, total local potential
   LVHAR        =      F    write LOCPOT, Hartree potential only
   LELF         =      F    write electronic localiz. function (ELF)
   LORBIT       =     11    0 simple, 1 ext, 2 COOP (PROOUT), +10 PAW based schemes


 Dipole corrections
   LMONO  =      F    monopole corrections only (constant potential shift)
   LDIPOL =      F    correct potential (dipole corrections)
   IDIPOL =      0    1-x, 2-y, 3-z, 4-all directions 
   EPSILON=  1.0000000 bulk dielectric constant

 Exchange correlation treatment:
   GGA     =    PE    GGA type
   LEXCH   =     8    internal setting for exchange type
   VOSKOWN=      0    Vosko Wilk Nusair interpolation
   LHFCALC =     F    Hartree Fock is set to
   LHFONE  =     F    Hartree Fock one center treatment
   AEXX    =    0.0000 exact exchange contribution

 Linear response parameters
   LEPSILON=     F    determine dielectric tensor
   LRPA    =     F    only Hartree local field effects (RPA)
   LNABLA  =     F    use nabla operator in PAW spheres
   LVEL    =     F    velocity operator in full k-point grid
   LINTERFAST=   F  fast interpolation
   KINTER  =     0    interpolate to denser k-point grid
   CSHIFT  =0.1000    complex shift for real part using Kramers Kronig
   OMEGAMAX=  -1.0    maximum frequency
   DEG_THRESHOLD= 0.2000000E-02 threshold for treating states as degnerate
   RTIME   =   -0.100 relaxation time in fs
  (WPLASMAI=    0.000 imaginary part of plasma frequency in eV, 0.658/RTIME)
   DFIELD  = 0.0000000 0.0000000 0.0000000 field for delta impulse in time
 
 Orbital magnetization related:
   ORBITALMAG=     F  switch on orbital magnetization
   LCHIMAG   =     F  perturbation theory with respect to B field
   DQ        =  0.001000  dq finite difference perturbation B field
   LLRAUG    =     F  two centre corrections for induced B field



--------------------------------------------------------------------------------------------------------


 conjugate gradient relaxation of ions
 charge density and potential will be updated during run
 spin polarized calculation
 Variant of blocked Davidson
 Davidson routine will perform the subspace rotation
 perform sub-space diagonalisation
    after iterative eigenvector-optimisation
 modified Broyden-mixing scheme, WC =      100.0
 initial mixing is a Kerker type mixing with AMIX =  0.4000 and BMIX =      1.0000
 Hartree-type preconditioning will be used
 using additional bands           86
 reciprocal scheme for non local part
 use partial core corrections
 calculate Harris-corrections to forces 
   (improved forces if not selfconsistent)
 use gradient corrections 
 use of overlap-Matrix (Vanderbilt PP)
 Gauss-broadening in eV      SIGMA  =   0.00


--------------------------------------------------------------------------------------------------------


  energy-cutoff  :      295.45
  volume of cell :     9542.10
      direct lattice vectors                 reciprocal lattice vectors
    21.210357000  0.000000000  0.000000000     0.047146778  0.000000000  0.000000000
     0.000000000 21.210357000  0.000000000     0.000000000  0.047146778  0.000000000
     0.000000000  0.000000000 21.210357000     0.000000000  0.000000000  0.047146778

  length of vectors
    21.210357000 21.210357000 21.210357000     0.047146778  0.047146778  0.047146778


 
 k-points in units of 2pi/SCALE and weight: Gamma-point only                        
   0.00000000  0.00000000  0.00000000       1.000
 
 k-points in reciprocal lattice and weights: Gamma-point only                        
   0.00000000  0.00000000  0.00000000       1.000
 
 position of ions in fractional coordinates (direct lattice) 
   0.65623531  0.49074157  0.53639581
   0.57492070  0.57922762  0.58607637
   0.58928144  0.56403899  0.47403769
   0.62627399  0.46099417  0.42625539
   0.63084066  0.50242438  0.64792656
   0.56177348  0.54323560  0.36431059
   0.53401088  0.64545388  0.41363095
   0.61404213  0.39828637  0.60512972
   0.46242890  0.60418533  0.33806665
   0.56848753  0.43644592  0.32438510
   0.59120834  0.37172281  0.49802581
   0.54526644  0.56203878  0.69616192
   0.54678801  0.47155537  0.53484747
   0.50001016  0.63910516  0.51988866
   0.47357846  0.54556881  0.44599270
   0.57127464  0.34463150  0.39166012
   0.46313037  0.48976735  0.33069640
   0.47773877  0.63160134  0.63239363
   0.46655924  0.37328575  0.35030454
   0.51506315  0.44156184  0.42681546
   0.41052721  0.64020868  0.43967675
   0.52529160  0.45676003  0.65400771
   0.46169569  0.53904304  0.56748041
   0.38668628  0.62439583  0.55339532
   0.47299956  0.34604974  0.46614917
   0.37091367  0.54802052  0.37316786
   0.50389105  0.36838653  0.57749263
   0.43631483  0.52920363  0.67939171
   0.39630918  0.44196509  0.41316739
   0.36353649  0.53346706  0.48421251
   0.41891150  0.42438486  0.63284754
   0.42801333  0.43908853  0.52108486
   0.35599699  0.51315393  0.59492458
 
 position of ions in cartesian coordinates  (Angst):
  13.91898520 10.40880389 11.37714662
  12.19427329 12.28562460 12.43088904
  12.49886972 11.96346834 10.05450864
  13.28349491  9.77785092  9.04102900
  13.38035561 10.65660047 13.74275365
  11.91541606 11.52222101  7.72715767
  11.32656141 13.69030722  8.77326012
  13.02405279  8.44779610 12.83501739
   9.80828206 12.81498654  7.17051434
  12.05782346  9.25717377  6.88032378
  12.53973995  7.88437351 10.56330523
  11.56529585 11.92104317 14.76584285
  11.59756890 10.00185774 11.34430578
  10.60539400 13.55564860 11.02702408
  10.04476820 11.57170923  9.45966439
  12.11693906  7.30975715  8.30725097
   9.82316049 10.38814034  7.01418870
  10.13300986 13.39648990 13.41329466
   9.89588804  7.91752402  7.43008435
  10.92467329  9.36568426  9.05290828
   8.70742868 13.57905466  9.32570083
  11.14162237  9.68804330 13.87173701
   9.79273041 11.43329532 12.03646209
   8.20175405 13.24365846 11.73771230
  10.03248953  7.33983853  9.88719031
   7.86721136 11.62371087  7.91502353
  10.68770906  7.81360982 12.24882485
   9.25439331 11.22459792 14.41014071
   8.40585919  9.37423734  8.76342784
   7.71073874 11.31502679 10.27032020
   8.88526247  9.00135439 13.42292225
   9.07831553  9.31322448 11.05239591
   7.55082325 10.88417805 12.61856273
 


--------------------------------------------------------------------------------------------------------


 use parallel FFT for orbitals z direction half grid
 k-point  1 :   0.0000 0.0000 0.0000  plane waves:   55002

 maximum and minimum number of plane-waves per node :      4586     4581

 maximum number of plane-waves:     55002
 maximum index in each direction: 
   IXMAX=   29   IYMAX=   29   IZMAX=   29
   IXMIN=  -29   IYMIN=  -29   IZMIN=    0


 parallel 3D FFT for wavefunctions:
    minimum data exchange during FFTs selected (reduces bandwidth)
 parallel 3D FFT for charge:
    minimum data exchange during FFTs selected (reduces bandwidth)


 total amount of memory used by VASP MPI-rank0    63358. kBytes
=======================================================================

   base      :      30000. kBytes
   nonl-proj :       3080. kBytes
   fftplans  :       5726. kBytes
   grid      :      14618. kBytes
   one-center:         46. kBytes
   wavefun   :       9888. kBytes
 
     INWAV:  cpu time    0.0000: real time    0.0000
 Broyden mixing: mesh for mixing (old mesh)
   NGX = 59   NGY = 59   NGZ = 59
  (NGX  =180   NGY  =180   NGZ  =180)
  gives a total of 205379 points

 initial charge density was supplied:
 charge density of overlapping atoms calculated
 number of electron     363.0000000 magnetization      99.0000000
 keeping initial charge density in first step


--------------------------------------------------------------------------------------------------------


 Maximum index for augmentation-charges          201 (set IRDMAX)


--------------------------------------------------------------------------------------------------------


 First call to EWALD:  gamma=   0.084
 Maximum number of real-space cells 3x 3x 3
 Maximum number of reciprocal cells 3x 3x 3

    FEWALD:  cpu time    0.0034: real time    0.0034


--------------------------------------- Iteration      1(   1)  ---------------------------------------


    POTLOK:  cpu time    0.2049: real time    0.2119
    SETDIJ:  cpu time    0.0155: real time    0.0155
     EDDAV:  cpu time    3.1377: real time    3.1466
       DOS:  cpu time    0.0042: real time    0.0042
    --------------------------------------------
      LOOP:  cpu time    3.3624: real time    3.3784

 eigenvalue-minimisations  :  1088
 total energy-change (2. order) : 0.2386082E+04  (-0.8403992E+04)
 number of electron     363.0000000 magnetization      99.0000000
 augmentation part      363.0000000 magnetization      99.0000000

 Free energy of the ion-electron system (eV)
  ---------------------------------------------------
  alpha Z        PSCENC =        83.46341839
  Ewald energy   TEWEN  =    102154.98028104
  -Hartree energ DENC   =   -144064.43615057
  -exchange      EXHF   =         0.00000000
  -V(xc)+E(xc)   XCENC  =      1522.79732736
  PAW double counting   =     40498.16693349   -43985.56393627
  entropy T*S    EENTRO =        -0.00000000
  eigenvalues    EBANDS =       275.79973212
  atomic energy  EATOM  =     45900.87429371
  Solvation  Ediel_sol  =         0.00000000
  ---------------------------------------------------
  free energy    TOTEN  =      2386.08189926 eV

  energy without entropy =     2386.08189926  energy(sigma->0) =     2386.08189926


--------------------------------------------------------------------------------------------------------




--------------------------------------- Iteration      1(   2)  ---------------------------------------


     EDDAV:  cpu time    3.1881: real time    3.1990
       DOS:  cpu time    0.0004: real time    0.0004
    --------------------------------------------
      LOOP:  cpu time    3.1885: real time    3.1994

 eigenvalue-minimisations  :  1128
 total energy-change (2. order) :-0.2296247E+04  (-0.2092676E+04)
 number of electron     363.0000000 magnetization      99.0000000
 augmentation part      363.0000000 magnetization      99.0000000

 Free energy of the ion-electron system (eV)
  ---------------------------------------------------
  alpha Z        PSCENC =        83.46341839
  Ewald energy   TEWEN  =    102154.98028104
  -Hartree energ DENC   =   -144064.43615057
  -exchange      EXHF   =         0.00000000
  -V(xc)+E(xc)   XCENC  =      1522.79732736
  PAW double counting   =     40498.16693349   -43985.56393627
  entropy T*S    EENTRO =        -0.00000000
  eigenvalues    EBANDS =     -2020.44759200
  atomic energy  EATOM  =     45900.87429371
  Solvation  Ediel_sol  =         0.00000000
  ---------------------------------------------------
  free energy    TOTEN  =        89.83457514 eV

  energy without entropy =       89.83457514  energy(sigma->0) =       89.83457514


--------------------------------------------------------------------------------------------------------




--------------------------------------- Iteration      1(   3)  ---------------------------------------


     EDDAV:  cpu time    3.5462: real time    3.5614
       DOS:  cpu time    0.0002: real time    0.0002
    --------------------------------------------
      LOOP:  cpu time    3.5464: real time    3.5616

 eigenvalue-minimisations  :  1296
 total energy-change (2. order) :-0.1496565E+03  (-0.1411498E+03)
 number of electron     363.0000000 magnetization      99.0000000
 augmentation part      363.0000000 magnetization      99.0000000

 Free energy of the ion-electron system (eV)
  ---------------------------------------------------
  alpha Z        PSCENC =        83.46341839
  Ewald energy   TEWEN  =    102154.98028104
  -Hartree energ DENC   =   -144064.43615057
  -exchange      EXHF   =         0.00000000
  -V(xc)+E(xc)   XCENC  =      1522.79732736
  PAW double counting   =     40498.16693349   -43985.56393627
  entropy T*S    EENTRO =         0.00000000
  eigenvalues    EBANDS =     -2170.10411375
  atomic energy  EATOM  =     45900.87429371
  Solvation  Ediel_sol  =         0.00000000
  ---------------------------------------------------
  free energy    TOTEN  =       -59.82194661 eV

  energy without entropy =      -59.82194661  energy(sigma->0) =      -59.82194661


--------------------------------------------------------------------------------------------------------




--------------------------------------- Iteration      1(   4)  ---------------------------------------


     EDDAV:  cpu time    3.6488: real time    3.6584
       DOS:  cpu time    0.0004: real time    0.0004
    --------------------------------------------
      LOOP:  cpu time    3.6492: real time    3.6588

 eigenvalue-minimisations  :  1336
 total energy-change (2. order) :-0.7917037E+01  (-0.7621940E+01)
 number of electron     363.0000000 magnetization      99.0000000
 augmentation part      363.0000000 magnetization      99.0000000

 Free energy of the ion-electron system (eV)
  ---------------------------------------------------
  alpha Z        PSCENC =        83.46341839
  Ewald energy   TEWEN  =    102154.98028104
  -Hartree energ DENC   =   -144064.43615057
  -exchange      EXHF   =         0.00000000
  -V(xc)+E(xc)   XCENC  =      1522.79732736
  PAW double counting   =     40498.16693349   -43985.56393627
  entropy T*S    EENTRO =        -0.00000000
  eigenvalues    EBANDS =     -2178.02115069
  atomic energy  EATOM  =     45900.87429371
  Solvation  Ediel_sol  =         0.00000000
  ---------------------------------------------------
  free energy    TOTEN  =       -67.73898355 eV

  energy without entropy =      -67.73898355  energy(sigma->0) =      -67.73898355


--------------------------------------------------------------------------------------------------------




--------------------------------------- Iteration      1(   5)  ---------------------------------------


     EDDAV:  cpu time    3.5691: real time    3.5779
       DOS:  cpu time    0.0003: real time    0.0003
    CHARGE:  cpu time    0.1133: real time    0.1135
    MIXING:  cpu time    0.0099: real time    0.0099
    --------------------------------------------
      LOOP:  cpu time    3.6926: real time    3.7016

 eigenvalue-minimisations  :  1304
 total energy-change (2. order) :-0.2712526E+00  (-0.2703168E+00)
 number of electron     363.0000211 magnetization      88.9318907
 augmentation part      213.3247331 magnetization      84.7966432

 Broyden mixing:
  rms(total) = 0.10202E+02    rms(broyden)= 0.10200E+02
  rms(prec ) = 0.10335E+02
  weight for this iteration     100.00

 Free energy of the ion-electron system (eV)
  ---------------------------------------------------
  alpha Z        PSCENC =        83.46341839
  Ewald energy   TEWEN  =    102154.98028104
  -Hartree energ DENC   =   -144064.43615057
  -exchange      EXHF   =         0.00000000
  -V(xc)+E(xc)   XCENC  =      1522.79732736
  PAW double counting   =     40498.16693349   -43985.56393627
  entropy T*S    EENTRO =        -0.00000000
  eigenvalues    EBANDS =     -2178.29240325
  atomic energy  EATOM  =     45900.87429371
  Solvation  Ediel_sol  =         0.00000000
  ---------------------------------------------------
  free energy    TOTEN  =       -68.01023611 eV

  energy without entropy =      -68.01023611  energy(sigma->0) =      -68.01023611


--------------------------------------------------------------------------------------------------------




--------------------------------------- Iteration      1(   6)  ---------------------------------------


    POTLOK:  cpu time    0.2048: real time    0.2059
    SETDIJ:  cpu time    0.0068: real time    0.0068
     EDDAV:  cpu time    3.2546: real time    3.2627
       DOS:  cpu time    0.0005: real time    0.0005
    CHARGE:  cpu time    0.1075: real time    0.1078
    MIXING:  cpu time    0.0063: real time    0.0064
    --------------------------------------------
      LOOP:  cpu time    3.5806: real time    3.5901

 eigenvalue-minimisations  :  1156
 total energy-change (2. order) : 0.2100670E+03  (-0.1351037E+03)
 number of electron     363.0000253 magnetization      81.9838558
 augmentation part      251.0344327 magnetization      54.0775220

 Broyden mixing:
  rms(total) = 0.50905E+01    rms(broyden)= 0.50874E+01
  rms(prec ) = 0.53114E+01
  weight for this iteration     100.00

 eigenvalues of (default mixing * dielectric matrix)
  average eigenvalue GAMMA=   0.9380
  0.9380

 Free energy of the ion-electron system (eV)
  ---------------------------------------------------
  alpha Z        PSCENC =        83.46341839
  Ewald energy   TEWEN  =    102154.98028104
  -Hartree energ DENC   =   -143050.78657683
  -exchange      EXHF   =         0.00000000
  -V(xc)+E(xc)   XCENC  =      1631.46252392
  PAW double counting   =     40574.52319913   -43879.31063709
  entropy T*S    EENTRO =         0.00000000
  eigenvalues    EBANDS =     -3273.14978397
  atomic energy  EATOM  =     45900.87429371
  Solvation  Ediel_sol  =         0.00000000
  ---------------------------------------------------
  free energy    TOTEN  =       142.05671829 eV

  energy without entropy =      142.05671829  energy(sigma->0) =      142.05671829


--------------------------------------------------------------------------------------------------------




--------------------------------------- Iteration      1(   7)  ---------------------------------------


    POTLOK:  cpu time    0.1968: real time    0.2042
    SETDIJ:  cpu time    0.0079: real time    0.0079
     EDDAV:  cpu time    3.5399: real time    3.5473
       DOS:  cpu time    0.0003: real time    0.0003
    CHARGE:  cpu time    0.1137: real time    0.1139
    MIXING:  cpu time    0.0061: real time    0.0061
    --------------------------------------------
      LOOP:  cpu time    3.8646: real time    3.8797

 eigenvalue-minimisations  :  1244
 total energy-change (2. order) : 0.4663853E+01  (-0.5348264E+02)
 number of electron     363.0000232 magnetization      73.9371240
 augmentation part      234.0981510 magnetization      43.7159153

 Broyden mixing:
  rms(total) = 0.24870E+01    rms(broyden)= 0.24856E+01
  rms(prec ) = 0.25309E+01
  weight for this iteration     100.00

 eigenvalues of (default mixing * dielectric matrix)
  average eigenvalue GAMMA=   0.8648
  1.0465  0.6831

 Free energy of the ion-electron system (eV)
  ---------------------------------------------------
  alpha Z        PSCENC =        83.46341839
  Ewald energy   TEWEN  =    102154.98028104
  -Hartree energ DENC   =   -143870.87269627
  -exchange      EXHF   =         0.00000000
  -V(xc)+E(xc)   XCENC  =      1652.40368437
  PAW double counting   =     41836.63489880   -45433.09398078
  entropy T*S    EENTRO =         0.00000000
  eigenvalues    EBANDS =     -2177.66932781
  atomic energy  EATOM  =     45900.87429371
  Solvation  Ediel_sol  =         0.00000000
  ---------------------------------------------------
  free energy    TOTEN  =       146.72057144 eV

  energy without entropy =      146.72057144  energy(sigma->0) =      146.72057144


--------------------------------------------------------------------------------------------------------




--------------------------------------- Iteration      1(   8)  ---------------------------------------


    POTLOK:  cpu time    0.2255: real time    0.2312
    SETDIJ:  cpu time    0.0083: real time    0.0083
     EDDAV:  cpu time    3.7879: real time    3.7958
       DOS:  cpu time    0.0004: real time    0.0005
    CHARGE:  cpu time    0.1227: real time    0.1230
    MIXING:  cpu time    0.0057: real time    0.0057
    --------------------------------------------
      LOOP:  cpu time    4.1505: real time    4.1644

 eigenvalue-minimisations  :  1352
 total energy-change (2. order) : 0.1191687E+02  (-0.8181166E+01)
 number of electron     363.0000233 magnetization      69.3661114
 augmentation part      231.9168026 magnetization      38.8467764

 Broyden mixing:
  rms(total) = 0.23987E+01    rms(broyden)= 0.23982E+01
  rms(prec ) = 0.24879E+01
  weight for this iteration     100.00

 eigenvalues of (default mixing * dielectric matrix)
  average eigenvalue GAMMA=   0.7705
  1.1107  0.7020  0.4987

 Free energy of the ion-electron system (eV)
  ---------------------------------------------------
  alpha Z        PSCENC =        83.46341839
  Ewald energy   TEWEN  =    102154.98028104
  -Hartree energ DENC   =   -143995.45153073
  -exchange      EXHF   =         0.00000000
  -V(xc)+E(xc)   XCENC  =      1662.74675437
  PAW double counting   =     42517.19807518   -46124.96646408
  entropy T*S    EENTRO =         0.00000000
  eigenvalues    EBANDS =     -2040.20738920
  atomic energy  EATOM  =     45900.87429371
  Solvation  Ediel_sol  =         0.00000000
  ---------------------------------------------------
  free energy    TOTEN  =       158.63743867 eV

  energy without entropy =      158.63743867  energy(sigma->0) =      158.63743867


--------------------------------------------------------------------------------------------------------




--------------------------------------- Iteration      1(   9)  ---------------------------------------


    POTLOK:  cpu time    0.1944: real time    0.2014
    SETDIJ:  cpu time    0.0078: real time    0.0078
     EDDAV:  cpu time    3.7471: real time    3.7565
       DOS:  cpu time    0.0004: real time    0.0004
    CHARGE:  cpu time    0.1059: real time    0.1061
    MIXING:  cpu time    0.0063: real time    0.0063
    --------------------------------------------
      LOOP:  cpu time    4.0619: real time    4.0785

 eigenvalue-minimisations  :  1376
 total energy-change (2. order) :-0.1080568E+02  (-0.2190126E+01)
 number of electron     363.0000235 magnetization      56.1849372
 augmentation part      232.9210012 magnetization      27.4303745

 Broyden mixing:
  rms(total) = 0.16741E+01    rms(broyden)= 0.16736E+01
  rms(prec ) = 0.17018E+01
  weight for this iteration     100.00

 eigenvalues of (default mixing * dielectric matrix)
  average eigenvalue GAMMA=   0.9443
  1.6848  0.9095  0.7778  0.4050

 Free energy of the ion-electron system (eV)
  ---------------------------------------------------
  alpha Z        PSCENC =        83.46341839
  Ewald energy   TEWEN  =    102154.98028104
  -Hartree energ DENC   =   -143965.91129308
  -exchange      EXHF   =         0.00000000
  -V(xc)+E(xc)   XCENC  =      1651.40190850
  PAW double counting   =     42699.26485202   -46294.29993950
  entropy T*S    EENTRO =         0.00000000
  eigenvalues    EBANDS =     -2081.94176326
  atomic energy  EATOM  =     45900.87429371
  Solvation  Ediel_sol  =         0.00000000
  ---------------------------------------------------
  free energy    TOTEN  =       147.83175781 eV

  energy without entropy =      147.83175781  energy(sigma->0) =      147.83175781


--------------------------------------------------------------------------------------------------------




--------------------------------------- Iteration      1(  10)  ---------------------------------------


    POTLOK:  cpu time    0.1978: real time    0.2021
    SETDIJ:  cpu time    0.0075: real time    0.0075
     EDDAV:  cpu time    4.6093: real time    4.6192
       DOS:  cpu time    0.0004: real time    0.0004
    CHARGE:  cpu time    0.1068: real time    0.1071
    MIXING:  cpu time    0.0061: real time    0.0061
    --------------------------------------------
      LOOP:  cpu time    4.9280: real time    4.9425

 eigenvalue-minimisations  :  1816
 total energy-change (2. order) :-0.5246775E+02  (-0.2515301E+01)
 number of electron     363.0000230 magnetization      45.5952174
 augmentation part      233.6343006 magnetization      20.9160025

 Broyden mixing:
  rms(total) = 0.14358E+01    rms(broyden)= 0.14349E+01
  rms(prec ) = 0.14900E+01
  weight for this iteration     100.00

 eigenvalues of (default mixing * dielectric matrix)
  average eigenvalue GAMMA=   1.0496
  2.5840  1.0418  0.7186  0.4517  0.4517

 Free energy of the ion-electron system (eV)
  ---------------------------------------------------
  alpha Z        PSCENC =        83.46341839
  Ewald energy   TEWEN  =    102154.98028104
  -Hartree energ DENC   =   -144022.35994316
  -exchange      EXHF   =         0.00000000
  -V(xc)+E(xc)   XCENC  =      1608.99163130
  PAW double counting   =     43112.07562869   -46682.74978454
  entropy T*S    EENTRO =         0.00000000
  eigenvalues    EBANDS =     -2059.91152096
  atomic energy  EATOM  =     45900.87429371
  Solvation  Ediel_sol  =         0.00000000
  ---------------------------------------------------
  free energy    TOTEN  =        95.36400446 eV

  energy without entropy =       95.36400446  energy(sigma->0) =       95.36400446


--------------------------------------------------------------------------------------------------------




--------------------------------------- Iteration      1(  11)  ---------------------------------------


    POTLOK:  cpu time    0.1957: real time    0.2029
    SETDIJ:  cpu time    0.0084: real time    0.0084
     EDDAV:  cpu time    3.6754: real time    3.6831
       DOS:  cpu time    0.0003: real time    0.0002
    CHARGE:  cpu time    0.1080: real time    0.1082
    MIXING:  cpu time    0.0065: real time    0.0065
    --------------------------------------------
      LOOP:  cpu time    3.9942: real time    4.0093

 eigenvalue-minimisations  :  1368
 total energy-change (2. order) :-0.2543212E+02  (-0.2298472E+01)
 number of electron     363.0000237 magnetization      40.0358872
 augmentation part      234.1668498 magnetization      17.1128962

 Broyden mixing:
  rms(total) = 0.10400E+01    rms(broyden)= 0.10396E+01
  rms(prec ) = 0.10624E+01
  weight for this iteration     100.00

 eigenvalues of (default mixing * dielectric matrix)
  average eigenvalue GAMMA=   1.0529
  2.9549  1.2477  0.6391  0.6391  0.4582  0.3785

 Free energy of the ion-electron system (eV)
  ---------------------------------------------------
  alpha Z        PSCENC =        83.46341839
  Ewald energy   TEWEN  =    102154.98028104
  -Hartree energ DENC   =   -144048.68495393
  -exchange      EXHF   =         0.00000000
  -V(xc)+E(xc)   XCENC  =      1590.42834677
  PAW double counting   =     43313.63062681   -46869.91812020
  entropy T*S    EENTRO =        -0.00000000
  eigenvalues    EBANDS =     -2054.84201219
  atomic energy  EATOM  =     45900.87429371
  Solvation  Ediel_sol  =         0.00000000
  ---------------------------------------------------
  free energy    TOTEN  =        69.93188039 eV

  energy without entropy =       69.93188039  energy(sigma->0) =       69.93188039


--------------------------------------------------------------------------------------------------------




--------------------------------------- Iteration      1(  12)  ---------------------------------------


    POTLOK:  cpu time    0.1938: real time    0.2006
    SETDIJ:  cpu time    0.0076: real time    0.0076
     EDDAV:  cpu time    3.5990: real time    3.6066
       DOS:  cpu time    0.0004: real time    0.0004
    CHARGE:  cpu time    0.1073: real time    0.1075
    MIXING:  cpu time    0.0068: real time    0.0068
    --------------------------------------------
      LOOP:  cpu time    3.9148: real time    3.9296

 eigenvalue-minimisations  :  1328
 total energy-change (2. order) :-0.2766268E+02  (-0.1729101E+01)
 number of electron     363.0000232 magnetization      33.0885136
 augmentation part      233.8387737 magnetization      12.1751451

 Broyden mixing:
  rms(total) = 0.76820E+00    rms(broyden)= 0.76806E+00
  rms(prec ) = 0.78491E+00
  weight for this iteration     100.00

 eigenvalues of (default mixing * dielectric matrix)
  average eigenvalue GAMMA=   1.1872
  3.4502  1.8216  0.7946  0.7946  0.6278  0.4109  0.4109

 Free energy of the ion-electron system (eV)
  ---------------------------------------------------
  alpha Z        PSCENC =        83.46341839
  Ewald energy   TEWEN  =    102154.98028104
  -Hartree energ DENC   =   -144045.48440265
  -exchange      EXHF   =         0.00000000
  -V(xc)+E(xc)   XCENC  =      1569.71943229
  PAW double counting   =     43221.82993671   -46773.14515114
  entropy T*S    EENTRO =         0.00000000
  eigenvalues    EBANDS =     -2069.96860742
  atomic energy  EATOM  =     45900.87429371
  Solvation  Ediel_sol  =         0.00000000
  ---------------------------------------------------
  free energy    TOTEN  =        42.26920092 eV

  energy without entropy =       42.26920092  energy(sigma->0) =       42.26920092


--------------------------------------------------------------------------------------------------------




--------------------------------------- Iteration      1(  13)  ---------------------------------------


    POTLOK:  cpu time    0.1959: real time    0.2050
    SETDIJ:  cpu time    0.0075: real time    0.0075
     EDDAV:  cpu time    3.7060: real time    3.7140
       DOS:  cpu time    0.0003: real time    0.0003
    CHARGE:  cpu time    0.1071: real time    0.1073
    MIXING:  cpu time    0.0071: real time    0.0072
    --------------------------------------------
      LOOP:  cpu time    4.0239: real time    4.0413

 eigenvalue-minimisations  :  1376
 total energy-change (2. order) :-0.4809295E+02  (-0.3206264E+01)
 number of electron     363.0000238 magnetization      25.1379945
 augmentation part      232.7890355 magnetization       9.6766228

 Broyden mixing:
  rms(total) = 0.71349E+00    rms(broyden)= 0.71254E+00
  rms(prec ) = 0.73418E+00
  weight for this iteration     100.00

 eigenvalues of (default mixing * dielectric matrix)
  average eigenvalue GAMMA=   1.2218
  4.2441  1.9740  0.8892  0.7129  0.7129  0.4315  0.4315  0.3786

 Free energy of the ion-electron system (eV)
  ---------------------------------------------------
  alpha Z        PSCENC =        83.46341839
  Ewald energy   TEWEN  =    102154.98028104
  -Hartree energ DENC   =   -144027.86861881
  -exchange      EXHF   =         0.00000000
  -V(xc)+E(xc)   XCENC  =      1534.22515157
  PAW double counting   =     43023.08495681   -46572.04784044
  entropy T*S    EENTRO =         0.00000000
  eigenvalues    EBANDS =     -2102.53539169
  atomic energy  EATOM  =     45900.87429371
  Solvation  Ediel_sol  =         0.00000000
  ---------------------------------------------------
  free energy    TOTEN  =        -5.82374943 eV

  energy without entropy =       -5.82374943  energy(sigma->0) =       -5.82374943


--------------------------------------------------------------------------------------------------------




--------------------------------------- Iteration      1(  14)  ---------------------------------------


    POTLOK:  cpu time    0.1957: real time    0.2018
    SETDIJ:  cpu time    0.0075: real time    0.0075
     EDDAV:  cpu time    3.8612: real time    3.8709
       DOS:  cpu time    0.0007: real time    0.0007
    CHARGE:  cpu time    0.1083: real time    0.1086
    MIXING:  cpu time    0.0080: real time    0.0080
    --------------------------------------------
      LOOP:  cpu time    4.1813: real time    4.1974

 eigenvalue-minimisations  :  1432
 total energy-change (2. order) :-0.3151752E+02  (-0.2500194E+01)
 number of electron     363.0000230 magnetization      18.0822521
 augmentation part      232.0608322 magnetization       7.5190903

 Broyden mixing:
  rms(total) = 0.56508E+00    rms(broyden)= 0.56407E+00
  rms(prec ) = 0.57849E+00
  weight for this iteration     100.00

 eigenvalues of (default mixing * dielectric matrix)
  average eigenvalue GAMMA=   1.2602
  5.0357  2.1323  1.0943  0.6347  0.6347  0.5225  0.5225  0.3824  0.3824

 Free energy of the ion-electron system (eV)
  ---------------------------------------------------
  alpha Z        PSCENC =        83.46341839
  Ewald energy   TEWEN  =    102154.98028104
  -Hartree energ DENC   =   -144037.83871414
  -exchange      EXHF   =         0.00000000
  -V(xc)+E(xc)   XCENC  =      1511.30996854
  PAW double counting   =     42983.44728016   -46532.83392277
  entropy T*S    EENTRO =         0.00000000
  eigenvalues    EBANDS =     -2100.74386948
  atomic energy  EATOM  =     45900.87429371
  Solvation  Ediel_sol  =         0.00000000
  ---------------------------------------------------
  free energy    TOTEN  =       -37.34126455 eV

  energy without entropy =      -37.34126455  energy(sigma->0) =      -37.34126455


--------------------------------------------------------------------------------------------------------




--------------------------------------- Iteration      1(  15)  ---------------------------------------


    POTLOK:  cpu time    0.1973: real time    0.2044
    SETDIJ:  cpu time    0.0075: real time    0.0075
     EDDAV:  cpu time    3.3982: real time    3.4053
       DOS:  cpu time    0.0003: real time    0.0003
    CHARGE:  cpu time    0.1069: real time    0.1071
    MIXING:  cpu time    0.0076: real time    0.0076
    --------------------------------------------
      LOOP:  cpu time    3.7177: real time    3.7322

 eigenvalue-minimisations  :  1224
 total energy-change (2. order) :-0.1944413E+02  (-0.1626906E+01)
 number of electron     363.0000231 magnetization      14.2217497
 augmentation part      231.6935986 magnetization       6.8226323

 Broyden mixing:
  rms(total) = 0.44658E+00    rms(broyden)= 0.44600E+00
  rms(prec ) = 0.46205E+00
  weight for this iteration     100.00

 eigenvalues of (default mixing * dielectric matrix)
  average eigenvalue GAMMA=   1.2752
  5.5773  2.3504  1.0254  0.6756  0.6756  0.6349  0.6349  0.4065  0.4065  0.3647

 Free energy of the ion-electron system (eV)
  ---------------------------------------------------
  alpha Z        PSCENC =        83.46341839
  Ewald energy   TEWEN  =    102154.98028104
  -Hartree energ DENC   =   -144046.78995319
  -exchange      EXHF   =         0.00000000
  -V(xc)+E(xc)   XCENC  =      1496.97129209
  PAW double counting   =     42977.25092388   -46524.87914352
  entropy T*S    EENTRO =         0.00000000
  eigenvalues    EBANDS =     -2098.65651006
  atomic energy  EATOM  =     45900.87429371
  Solvation  Ediel_sol  =         0.00000000
  ---------------------------------------------------
  free energy    TOTEN  =       -56.78539766 eV

  energy without entropy =      -56.78539766  energy(sigma->0) =      -56.78539766


--------------------------------------------------------------------------------------------------------




--------------------------------------- Iteration      1(  16)  ---------------------------------------


    POTLOK:  cpu time    0.1966: real time    0.2037
    SETDIJ:  cpu time    0.0077: real time    0.0077
     EDDAV:  cpu time    3.6400: real time    3.6476
       DOS:  cpu time    0.0004: real time    0.0004
    CHARGE:  cpu time    0.1068: real time    0.1070
    MIXING:  cpu time    0.0079: real time    0.0079
    --------------------------------------------
      LOOP:  cpu time    3.9595: real time    3.9744

 eigenvalue-minimisations  :  1344
 total energy-change (2. order) :-0.1277579E+02  (-0.8860444E+00)
 number of electron     363.0000233 magnetization      11.2311188
 augmentation part      231.8631941 magnetization       6.6808482

 Broyden mixing:
  rms(total) = 0.36505E+00    rms(broyden)= 0.36437E+00
  rms(prec ) = 0.38405E+00
  weight for this iteration     100.00

 eigenvalues of (default mixing * dielectric matrix)
  average eigenvalue GAMMA=   1.2946
  6.1369  2.5320  0.8544  0.8544  0.9201  0.6878  0.6878  0.4141  0.4141  0.3696
  0.3696

 Free energy of the ion-electron system (eV)
  ---------------------------------------------------
  alpha Z        PSCENC =        83.46341839
  Ewald energy   TEWEN  =    102154.98028104
  -Hartree energ DENC   =   -144026.31884693
  -exchange      EXHF   =         0.00000000
  -V(xc)+E(xc)   XCENC  =      1487.08056662
  PAW double counting   =     42913.69563702   -46455.88079211
  entropy T*S    EENTRO =         0.00000000
  eigenvalues    EBANDS =     -2127.45574522
  atomic energy  EATOM  =     45900.87429371
  Solvation  Ediel_sol  =         0.00000000
  ---------------------------------------------------
  free energy    TOTEN  =       -69.56118750 eV

  energy without entropy =      -69.56118750  energy(sigma->0) =      -69.56118750


--------------------------------------------------------------------------------------------------------




--------------------------------------- Iteration      1(  17)  ---------------------------------------


    POTLOK:  cpu time    0.1966: real time    0.2035
    SETDIJ:  cpu time    0.0069: real time    0.0069
     EDDAV:  cpu time    3.9233: real time    3.9315
       DOS:  cpu time    0.0003: real time    0.0003
    CHARGE:  cpu time    0.1069: real time    0.1072
    MIXING:  cpu time    0.0083: real time    0.0083
    --------------------------------------------
      LOOP:  cpu time    4.2422: real time    4.2576

 eigenvalue-minimisations  :  1480
 total energy-change (2. order) :-0.8080893E+01  (-0.4268408E+00)
 number of electron     363.0000232 magnetization       7.6418207
 augmentation part      232.1805949 magnetization       5.5765096

 Broyden mixing:
  rms(total) = 0.30564E+00    rms(broyden)= 0.30477E+00
  rms(prec ) = 0.31761E+00
  weight for this iteration     100.00

 eigenvalues of (default mixing * dielectric matrix)
  average eigenvalue GAMMA=   1.3359
  6.9744  2.5424  1.0248  1.0248  1.0466  0.6502  0.6502  0.4978  0.4978  0.3799
  0.3799  0.3621

 Free energy of the ion-electron system (eV)
  ---------------------------------------------------
  alpha Z        PSCENC =        83.46341839
  Ewald energy   TEWEN  =    102154.98028104
  -Hartree energ DENC   =   -144000.81241795
  -exchange      EXHF   =         0.00000000
  -V(xc)+E(xc)   XCENC  =      1480.22409075
  PAW double counting   =     42841.47775721   -46379.07631958
  entropy T*S    EENTRO =         0.00000000
  eigenvalues    EBANDS =     -2158.77318389
  atomic energy  EATOM  =     45900.87429371
  Solvation  Ediel_sol  =         0.00000000
  ---------------------------------------------------
  free energy    TOTEN  =       -77.64208033 eV

  energy without entropy =      -77.64208033  energy(sigma->0) =      -77.64208033


--------------------------------------------------------------------------------------------------------




--------------------------------------- Iteration      1(  18)  ---------------------------------------


    POTLOK:  cpu time    0.1972: real time    0.2044
    SETDIJ:  cpu time    0.0068: real time    0.0069
     EDDAV:  cpu time    3.6767: real time    3.6843
       DOS:  cpu time    0.0004: real time    0.0003
    CHARGE:  cpu time    0.1064: real time    0.1066
    MIXING:  cpu time    0.0087: real time    0.0086
    --------------------------------------------
      LOOP:  cpu time    3.9962: real time    4.0111

 eigenvalue-minimisations  :  1360
 total energy-change (2. order) :-0.5155740E+01  (-0.1979703E+00)
 number of electron     363.0000233 magnetization       5.7283206
 augmentation part      232.3073887 magnetization       4.2435971

 Broyden mixing:
  rms(total) = 0.20771E+00    rms(broyden)= 0.20760E+00
  rms(prec ) = 0.21718E+00
  weight for this iteration     100.00

 eigenvalues of (default mixing * dielectric matrix)
  average eigenvalue GAMMA=   1.3898
  8.0261  2.6515  1.0697  1.0697  0.9270  0.9270  0.6564  0.6564  0.5140  0.4508
  0.4012  0.3591  0.3591

 Free energy of the ion-electron system (eV)
  ---------------------------------------------------
  alpha Z        PSCENC =        83.46341839
  Ewald energy   TEWEN  =    102154.98028104
  -Hartree energ DENC   =   -143991.97735987
  -exchange      EXHF   =         0.00000000
  -V(xc)+E(xc)   XCENC  =      1475.72927703
  PAW double counting   =     42823.32779085   -46360.87742823
  entropy T*S    EENTRO =         0.00000000
  eigenvalues    EBANDS =     -2168.31809345
  atomic energy  EATOM  =     45900.87429371
  Solvation  Ediel_sol  =         0.00000000
  ---------------------------------------------------
  free energy    TOTEN  =       -82.79782054 eV

  energy without entropy =      -82.79782054  energy(sigma->0) =      -82.79782054


--------------------------------------------------------------------------------------------------------




--------------------------------------- Iteration      1(  19)  ---------------------------------------


    POTLOK:  cpu time    0.1979: real time    0.2050
    SETDIJ:  cpu time    0.0068: real time    0.0068
     EDDAV:  cpu time    3.6561: real time    3.6637
       DOS:  cpu time    0.0004: real time    0.0004
    CHARGE:  cpu time    0.1069: real time    0.1071
    MIXING:  cpu time    0.0091: real time    0.0091
    --------------------------------------------
      LOOP:  cpu time    3.9772: real time    3.9921

 eigenvalue-minimisations  :  1352
 total energy-change (2. order) :-0.3967892E+01  (-0.1035686E+00)
 number of electron     363.0000233 magnetization       4.7766970
 augmentation part      232.4259579 magnetization       3.6178623

 Broyden mixing:
  rms(total) = 0.16041E+00    rms(broyden)= 0.16037E+00
  rms(prec ) = 0.16976E+00
  weight for this iteration     100.00

 eigenvalues of (default mixing * dielectric matrix)
  average eigenvalue GAMMA=   1.3943
  8.4075  2.7412  1.2723  1.2723  0.9198  0.9198  0.6911  0.6911  0.5393  0.5393
  0.4097  0.4097  0.3536  0.3536

 Free energy of the ion-electron system (eV)
  ---------------------------------------------------
  alpha Z        PSCENC =        83.46341839
  Ewald energy   TEWEN  =    102154.98028104
  -Hartree energ DENC   =   -143975.04292854
  -exchange      EXHF   =         0.00000000
  -V(xc)+E(xc)   XCENC  =      1471.90401548
  PAW double counting   =     42789.69822526   -46327.38779703
  entropy T*S    EENTRO =         0.00000000
  eigenvalues    EBANDS =     -2185.25522105
  atomic energy  EATOM  =     45900.87429371
  Solvation  Ediel_sol  =         0.00000000
  ---------------------------------------------------
  free energy    TOTEN  =       -86.76571277 eV

  energy without entropy =      -86.76571277  energy(sigma->0) =      -86.76571277


--------------------------------------------------------------------------------------------------------




--------------------------------------- Iteration      1(  20)  ---------------------------------------


    POTLOK:  cpu time    0.1968: real time    0.2039
    SETDIJ:  cpu time    0.0068: real time    0.0068
     EDDAV:  cpu time    3.5994: real time    3.6071
       DOS:  cpu time    0.0004: real time    0.0004
    CHARGE:  cpu time    0.1064: real time    0.1067
    MIXING:  cpu time    0.0094: real time    0.0094
    --------------------------------------------
      LOOP:  cpu time    3.9193: real time    3.9343

 eigenvalue-minimisations  :  1320
 total energy-change (2. order) :-0.2954668E+01  (-0.4576809E-01)
 number of electron     363.0000233 magnetization       2.6282538
 augmentation part      232.4902009 magnetization       1.5650034

 Broyden mixing:
  rms(total) = 0.10451E+00    rms(broyden)= 0.10448E+00
  rms(prec ) = 0.11114E+00
  weight for this iteration     100.00

 eigenvalues of (default mixing * dielectric matrix)
  average eigenvalue GAMMA=   1.4572
  9.1458  3.1329  1.6659  1.0406  1.0406  0.9383  0.9383  0.6968  0.6968  0.5138
  0.5138  0.4100  0.4100  0.3571  0.3571

 Free energy of the ion-electron system (eV)
  ---------------------------------------------------
  alpha Z        PSCENC =        83.46341839
  Ewald energy   TEWEN  =    102154.98028104
  -Hartree energ DENC   =   -143957.24620192
  -exchange      EXHF   =         0.00000000
  -V(xc)+E(xc)   XCENC  =      1468.92624248
  PAW double counting   =     42770.18288965   -46309.18220193
  entropy T*S    EENTRO =         0.00000000
  eigenvalues    EBANDS =     -2201.71910214
  atomic energy  EATOM  =     45900.87429371
  Solvation  Ediel_sol  =         0.00000000
  ---------------------------------------------------
  free energy    TOTEN  =       -89.72038073 eV

  energy without entropy =      -89.72038073  energy(sigma->0) =      -89.72038073


--------------------------------------------------------------------------------------------------------




--------------------------------------- Iteration      1(  21)  ---------------------------------------


    POTLOK:  cpu time    0.1985: real time    0.2143
    SETDIJ:  cpu time    0.0076: real time    0.0077
     EDDAV:  cpu time    3.8066: real time    3.8148
       DOS:  cpu time    0.0002: real time    0.0002
    CHARGE:  cpu time    0.1064: real time    0.1066
    MIXING:  cpu time    0.0099: real time    0.0099
    --------------------------------------------
      LOOP:  cpu time    4.1293: real time    4.1536

 eigenvalue-minimisations  :  1432
 total energy-change (2. order) :-0.3326741E+01  (-0.4663436E-01)
 number of electron     363.0000233 magnetization       2.3005776
 augmentation part      232.5043774 magnetization       1.3981461

 Broyden mixing:
  rms(total) = 0.70686E-01    rms(broyden)= 0.70652E-01
  rms(prec ) = 0.76463E-01
  weight for this iteration     100.00

 eigenvalues of (default mixing * dielectric matrix)
  average eigenvalue GAMMA=   1.4711
  9.2735  3.3866  2.0396  1.2161  1.2161  0.9182  0.9182  0.6863  0.6863  0.6543
  0.5558  0.4491  0.4133  0.4133  0.3559  0.3559

 Free energy of the ion-electron system (eV)
  ---------------------------------------------------
  alpha Z        PSCENC =        83.46341839
  Ewald energy   TEWEN  =    102154.98028104
  -Hartree energ DENC   =   -143936.13894092
  -exchange      EXHF   =         0.00000000
  -V(xc)+E(xc)   XCENC  =      1465.57850344
  PAW double counting   =     42756.10002643   -46297.56237285
  entropy T*S    EENTRO =         0.00000000
  eigenvalues    EBANDS =     -2220.34233080
  atomic energy  EATOM  =     45900.87429371
  Solvation  Ediel_sol  =         0.00000000
  ---------------------------------------------------
  free energy    TOTEN  =       -93.04712157 eV

  energy without entropy =      -93.04712157  energy(sigma->0) =      -93.04712157


--------------------------------------------------------------------------------------------------------




--------------------------------------- Iteration      1(  22)  ---------------------------------------


    POTLOK:  cpu time    0.1960: real time    0.2036
    SETDIJ:  cpu time    0.0077: real time    0.0077
     EDDAV:  cpu time    3.5196: real time    3.5288
       DOS:  cpu time    0.0004: real time    0.0004
    CHARGE:  cpu time    0.1059: real time    0.1061
    MIXING:  cpu time    0.0118: real time    0.0118
    --------------------------------------------
      LOOP:  cpu time    3.8413: real time    3.8584

 eigenvalue-minimisations  :  1280
 total energy-change (2. order) :-0.8970615E+00  (-0.7751791E-02)
 number of electron     363.0000232 magnetization       2.0616214
 augmentation part      232.4533174 magnetization       1.1383932

 Broyden mixing:
  rms(total) = 0.45784E-01    rms(broyden)= 0.45771E-01
  rms(prec ) = 0.50891E-01
  weight for this iteration     100.00

 eigenvalues of (default mixing * dielectric matrix)
  average eigenvalue GAMMA=   1.4725
  9.4556  3.7644  2.0956  1.2411  1.2411  0.9680  0.9680  0.8809  0.6823  0.6823
  0.5374  0.5374  0.4493  0.4083  0.4083  0.3563  0.3563

 Free energy of the ion-electron system (eV)
  ---------------------------------------------------
  alpha Z        PSCENC =        83.46341839
  Ewald energy   TEWEN  =    102154.98028104
  -Hartree energ DENC   =   -143926.50968865
  -exchange      EXHF   =         0.00000000
  -V(xc)+E(xc)   XCENC  =      1464.74657915
  PAW double counting   =     42761.66453705   -46304.55568906
  entropy T*S    EENTRO =         0.00000000
  eigenvalues    EBANDS =     -2228.60791471
  atomic energy  EATOM  =     45900.87429371
  Solvation  Ediel_sol  =         0.00000000
  ---------------------------------------------------
  free energy    TOTEN  =       -93.94418309 eV

  energy without entropy =      -93.94418309  energy(sigma->0) =      -93.94418309


--------------------------------------------------------------------------------------------------------




--------------------------------------- Iteration      1(  23)  ---------------------------------------


    POTLOK:  cpu time    0.1985: real time    0.2009
    SETDIJ:  cpu time    0.0076: real time    0.0076
     EDDAV:  cpu time    3.5218: real time    3.5298
       DOS:  cpu time    0.0003: real time    0.0003
    CHARGE:  cpu time    0.1061: real time    0.1064
    MIXING:  cpu time    0.0125: real time    0.0125
    --------------------------------------------
      LOOP:  cpu time    3.8468: real time    3.8575

 eigenvalue-minimisations  :  1272
 total energy-change (2. order) :-0.6527155E+00  (-0.4074727E-02)
 number of electron     363.0000233 magnetization       1.5786605
 augmentation part      232.4171110 magnetization       0.6454970

 Broyden mixing:
  rms(total) = 0.29284E-01    rms(broyden)= 0.29275E-01
  rms(prec ) = 0.33614E-01
  weight for this iteration     100.00

 eigenvalues of (default mixing * dielectric matrix)
  average eigenvalue GAMMA=   1.4993
  9.7960  4.1454  2.2012  1.5973  1.1383  1.1383  0.9635  0.9635  0.6824  0.6824
  0.6879  0.5573  0.3559  0.3559  0.4524  0.4524  0.4091  0.4091

 Free energy of the ion-electron system (eV)
  ---------------------------------------------------
  alpha Z        PSCENC =        83.46341839
  Ewald energy   TEWEN  =    102154.98028104
  -Hartree energ DENC   =   -143915.20963778
  -exchange      EXHF   =         0.00000000
  -V(xc)+E(xc)   XCENC  =      1464.10353113
  PAW double counting   =     42760.90738513   -46304.39874580
  entropy T*S    EENTRO =         0.00000000
  eigenvalues    EBANDS =     -2239.31742442
  atomic energy  EATOM  =     45900.87429371
  Solvation  Ediel_sol  =         0.00000000
  ---------------------------------------------------
  free energy    TOTEN  =       -94.59689861 eV

  energy without entropy =      -94.59689861  energy(sigma->0) =      -94.59689861


--------------------------------------------------------------------------------------------------------




--------------------------------------- Iteration      1(  24)  ---------------------------------------


    POTLOK:  cpu time    0.1961: real time    0.2027
    SETDIJ:  cpu time    0.0074: real time    0.0075
     EDDAV:  cpu time    3.7691: real time    3.7771
       DOS:  cpu time    0.0004: real time    0.0004
    CHARGE:  cpu time    0.1063: real time    0.1065
    MIXING:  cpu time    0.0115: real time    0.0115
    --------------------------------------------
      LOOP:  cpu time    4.0908: real time    4.1056

 eigenvalue-minimisations  :  1404
 total energy-change (2. order) :-0.5614567E+00  (-0.1850449E-02)
 number of electron     363.0000233 magnetization       1.3410435
 augmentation part      232.4543505 magnetization       0.4355279

 Broyden mixing:
  rms(total) = 0.20170E-01    rms(broyden)= 0.20164E-01
  rms(prec ) = 0.22737E-01
  weight for this iteration     100.00

 eigenvalues of (default mixing * dielectric matrix)
  average eigenvalue GAMMA=   1.4999
  9.9797  4.1613  2.5599  1.4706  1.4706  0.9668  0.9668  0.9818  0.9818  0.6651
  0.6651  0.6872  0.4977  0.4977  0.3560  0.3560  0.4131  0.4131  0.4073

 Free energy of the ion-electron system (eV)
  ---------------------------------------------------
  alpha Z        PSCENC =        83.46341839
  Ewald energy   TEWEN  =    102154.98028104
  -Hartree energ DENC   =   -143901.33107459
  -exchange      EXHF   =         0.00000000
  -V(xc)+E(xc)   XCENC  =      1463.42244030
  PAW double counting   =     42757.06036750   -46300.31732742
  entropy T*S    EENTRO =        -0.00000000
  eigenvalues    EBANDS =     -2253.31075427
  atomic energy  EATOM  =     45900.87429371
  Solvation  Ediel_sol  =         0.00000000
  ---------------------------------------------------
  free energy    TOTEN  =       -95.15835535 eV

  energy without entropy =      -95.15835535  energy(sigma->0) =      -95.15835535


--------------------------------------------------------------------------------------------------------




--------------------------------------- Iteration      1(  25)  ---------------------------------------


    POTLOK:  cpu time    0.1943: real time    0.2016
    SETDIJ:  cpu time    0.0076: real time    0.0076
     EDDAV:  cpu time    3.2603: real time    3.2673
       DOS:  cpu time    0.0002: real time    0.0002
    CHARGE:  cpu time    0.1061: real time    0.1062
    MIXING:  cpu time    0.0121: real time    0.0121
    --------------------------------------------
      LOOP:  cpu time    3.5806: real time    3.5951

 eigenvalue-minimisations  :  1160
 total energy-change (2. order) :-0.1794781E+00  (-0.4175669E-03)
 number of electron     363.0000233 magnetization       1.2657763
 augmentation part      232.4586806 magnetization       0.3619822

 Broyden mixing:
  rms(total) = 0.13264E-01    rms(broyden)= 0.13262E-01
  rms(prec ) = 0.15567E-01
  weight for this iteration     100.00

 eigenvalues of (default mixing * dielectric matrix)
  average eigenvalue GAMMA=   1.4898
 10.0212  4.3309  2.7193  1.6945  1.3296  0.9749  0.9749  1.0204  1.0204  0.8314
  0.6638  0.6638  0.5683  0.5683  0.3558  0.3558  0.4532  0.4098  0.4098  0.4305

 Free energy of the ion-electron system (eV)
  ---------------------------------------------------
  alpha Z        PSCENC =        83.46341839
  Ewald energy   TEWEN  =    102154.98028104
  -Hartree energ DENC   =   -143897.31832560
  -exchange      EXHF   =         0.00000000
  -V(xc)+E(xc)   XCENC  =      1463.20717838
  PAW double counting   =     42763.66741889   -46306.85984894
  entropy T*S    EENTRO =         0.00000000
  eigenvalues    EBANDS =     -2257.35224929
  atomic energy  EATOM  =     45900.87429371
  Solvation  Ediel_sol  =         0.00000000
  ---------------------------------------------------
  free energy    TOTEN  =       -95.33783343 eV

  energy without entropy =      -95.33783343  energy(sigma->0) =      -95.33783343


--------------------------------------------------------------------------------------------------------




--------------------------------------- Iteration      1(  26)  ---------------------------------------


    POTLOK:  cpu time    0.1981: real time    0.2054
    SETDIJ:  cpu time    0.0069: real time    0.0069
     EDDAV:  cpu time    3.4121: real time    3.4195
       DOS:  cpu time    0.0004: real time    0.0004
    CHARGE:  cpu time    0.1068: real time    0.1070
    MIXING:  cpu time    0.0126: real time    0.0127
    --------------------------------------------
      LOOP:  cpu time    3.7370: real time    3.7518

 eigenvalue-minimisations  :  1232
 total energy-change (2. order) :-0.9944003E-01  (-0.2089675E-03)
 number of electron     363.0000233 magnetization       1.1948589
 augmentation part      232.4646510 magnetization       0.2892930

 Broyden mixing:
  rms(total) = 0.80180E-02    rms(broyden)= 0.80159E-02
  rms(prec ) = 0.10245E-01
  weight for this iteration     100.00

 eigenvalues of (default mixing * dielectric matrix)
  average eigenvalue GAMMA=   1.4957
 10.0233  4.5305  2.7384  2.1588  1.3147  1.3147  1.0015  1.0015  0.9468  0.9468
  0.6651  0.6651  0.6795  0.5102  0.5102  0.3558  0.3558  0.4123  0.4123  0.4558
  0.4114

 Free energy of the ion-electron system (eV)
  ---------------------------------------------------
  alpha Z        PSCENC =        83.46341839
  Ewald energy   TEWEN  =    102154.98028104
  -Hartree energ DENC   =   -143893.83654900
  -exchange      EXHF   =         0.00000000
  -V(xc)+E(xc)   XCENC  =      1463.08161140
  PAW double counting   =     42766.54701796   -46309.61909751
  entropy T*S    EENTRO =         0.00000000
  eigenvalues    EBANDS =     -2260.92824943
  atomic energy  EATOM  =     45900.87429371
  Solvation  Ediel_sol  =         0.00000000
  ---------------------------------------------------
  free energy    TOTEN  =       -95.43727346 eV

  energy without entropy =      -95.43727346  energy(sigma->0) =      -95.43727346


--------------------------------------------------------------------------------------------------------




--------------------------------------- Iteration      1(  27)  ---------------------------------------


    POTLOK:  cpu time    0.1907: real time    0.1984
    SETDIJ:  cpu time    0.0121: real time    0.0122
     EDDAV:  cpu time    3.6291: real time    3.6368
       DOS:  cpu time    0.0002: real time    0.0002
    CHARGE:  cpu time    0.1071: real time    0.1073
    MIXING:  cpu time    0.0132: real time    0.0133
    --------------------------------------------
      LOOP:  cpu time    3.9525: real time    3.9682

 eigenvalue-minimisations  :  1336
 total energy-change (2. order) :-0.6561007E-01  (-0.1880944E-03)
 number of electron     363.0000233 magnetization       1.1722681
 augmentation part      232.4765920 magnetization       0.2682928

 Broyden mixing:
  rms(total) = 0.59929E-02    rms(broyden)= 0.59913E-02
  rms(prec ) = 0.75799E-02
  weight for this iteration     100.00

 eigenvalues of (default mixing * dielectric matrix)
  average eigenvalue GAMMA=   1.4843
  9.9898  4.6610  2.8990  2.1220  1.3783  1.3783  1.0977  1.0977  0.9580  0.9580
  0.6698  0.6698  0.6981  0.6981  0.5254  0.3559  0.3559  0.4579  0.4579  0.4107
  0.4107  0.4040

 Free energy of the ion-electron system (eV)
  ---------------------------------------------------
  alpha Z        PSCENC =        83.46341839
  Ewald energy   TEWEN  =    102154.98028104
  -Hartree energ DENC   =   -143889.83812922
  -exchange      EXHF   =         0.00000000
  -V(xc)+E(xc)   XCENC  =      1462.98529597
  PAW double counting   =     42768.08012514   -46310.98249434
  entropy T*S    EENTRO =         0.00000000
  eigenvalues    EBANDS =     -2265.06567420
  atomic energy  EATOM  =     45900.87429371
  Solvation  Ediel_sol  =         0.00000000
  ---------------------------------------------------
  free energy    TOTEN  =       -95.50288353 eV

  energy without entropy =      -95.50288353  energy(sigma->0) =      -95.50288353


--------------------------------------------------------------------------------------------------------




--------------------------------------- Iteration      1(  28)  ---------------------------------------


    POTLOK:  cpu time    0.1915: real time    0.1994
    SETDIJ:  cpu time    0.0122: real time    0.0122
     EDDAV:  cpu time    3.6482: real time    3.6562
       DOS:  cpu time    0.0004: real time    0.0004
    CHARGE:  cpu time    0.1067: real time    0.1070
    MIXING:  cpu time    0.0139: real time    0.0140
    --------------------------------------------
      LOOP:  cpu time    3.9730: real time    3.9891

 eigenvalue-minimisations  :  1344
 total energy-change (2. order) :-0.2594461E-01  (-0.1002380E-03)
 number of electron     363.0000233 magnetization       1.1414703
 augmentation part      232.4683144 magnetization       0.2310439

 Broyden mixing:
  rms(total) = 0.46753E-02    rms(broyden)= 0.46743E-02
  rms(prec ) = 0.58793E-02
  weight for this iteration     100.00

 eigenvalues of (default mixing * dielectric matrix)
  average eigenvalue GAMMA=   1.4806
  9.9852  4.7749  3.0012  2.3973  1.3489  1.3489  1.1298  1.1298  0.9692  0.9692
  1.0090  0.7341  0.6582  0.6582  0.5832  0.4899  0.4899  0.3558  0.3558  0.4132
  0.4132  0.4192  0.4192

 Free energy of the ion-electron system (eV)
  ---------------------------------------------------
  alpha Z        PSCENC =        83.46341839
  Ewald energy   TEWEN  =    102154.98028104
  -Hartree energ DENC   =   -143887.63525100
  -exchange      EXHF   =         0.00000000
  -V(xc)+E(xc)   XCENC  =      1462.96744498
  PAW double counting   =     42771.18118866   -46314.17562744
  entropy T*S    EENTRO =         0.00000000
  eigenvalues    EBANDS =     -2267.18457648
  atomic energy  EATOM  =     45900.87429371
  Solvation  Ediel_sol  =         0.00000000
  ---------------------------------------------------
  free energy    TOTEN  =       -95.52882814 eV

  energy without entropy =      -95.52882814  energy(sigma->0) =      -95.52882814


--------------------------------------------------------------------------------------------------------




--------------------------------------- Iteration      1(  29)  ---------------------------------------


    POTLOK:  cpu time    0.1900: real time    0.1977
    SETDIJ:  cpu time    0.0123: real time    0.0123
     EDDAV:  cpu time    3.4983: real time    3.5057
       DOS:  cpu time    0.0003: real time    0.0002
    CHARGE:  cpu time    0.1065: real time    0.1067
    MIXING:  cpu time    0.0145: real time    0.0146
    --------------------------------------------
      LOOP:  cpu time    3.8218: real time    3.8373

 eigenvalue-minimisations  :  1272
 total energy-change (2. order) :-0.1494373E-01  (-0.6714231E-04)
 number of electron     363.0000233 magnetization       1.0944705
 augmentation part      232.4618422 magnetization       0.1814101

 Broyden mixing:
  rms(total) = 0.42348E-02    rms(broyden)= 0.42341E-02
  rms(prec ) = 0.50185E-02
  weight for this iteration     100.00

 eigenvalues of (default mixing * dielectric matrix)
  average eigenvalue GAMMA=   1.4781
 10.0011  4.8772  3.1859  2.6339  1.4664  1.4664  1.1677  1.0652  1.0652  0.9786
  0.9786  0.7762  0.6653  0.6653  0.6574  0.5145  0.3558  0.3558  0.4713  0.4713
  0.4119  0.4119  0.4051  0.4252

 Free energy of the ion-electron system (eV)
  ---------------------------------------------------
  alpha Z        PSCENC =        83.46341839
  Ewald energy   TEWEN  =    102154.98028104
  -Hartree energ DENC   =   -143885.35943316
  -exchange      EXHF   =         0.00000000
  -V(xc)+E(xc)   XCENC  =      1462.95583651
  PAW double counting   =     42772.79241101   -46315.85797945
  entropy T*S    EENTRO =         0.00000000
  eigenvalues    EBANDS =     -2269.39259991
  atomic energy  EATOM  =     45900.87429371
  Solvation  Ediel_sol  =         0.00000000
  ---------------------------------------------------
  free energy    TOTEN  =       -95.54377187 eV

  energy without entropy =      -95.54377187  energy(sigma->0) =      -95.54377187


--------------------------------------------------------------------------------------------------------




--------------------------------------- Iteration      1(  30)  ---------------------------------------


    POTLOK:  cpu time    0.1906: real time    0.1981
    SETDIJ:  cpu time    0.0123: real time    0.0124
     EDDAV:  cpu time    3.8895: real time    3.8974
       DOS:  cpu time    0.0004: real time    0.0004
    CHARGE:  cpu time    0.1068: real time    0.1070
    MIXING:  cpu time    0.0151: real time    0.0152
    --------------------------------------------
      LOOP:  cpu time    4.2149: real time    4.2304

 eigenvalue-minimisations  :  1456
 total energy-change (2. order) :-0.9315405E-02  (-0.3294731E-04)
 number of electron     363.0000233 magnetization       1.0443120
 augmentation part      232.4629696 magnetization       0.1335785

 Broyden mixing:
  rms(total) = 0.27398E-02    rms(broyden)= 0.27394E-02
[...]
 -0.002  -0.003  -0.002   0.001   0.002   0.000   0.000   0.001   0.000  -0.000   0.005   0.000  -0.004   0.003   0.003   0.000
 -0.004  -0.003  -0.003   0.001   0.003   0.001   0.001   0.001  -0.000  -0.001   0.007   0.000  -0.006   0.003   0.004   0.000
  0.000   0.000   0.000  -0.000   0.000   0.000   0.000   0.000  -0.000  -0.000   0.000  -0.000  -0.000   0.000   0.000   0.000
 -0.000  -0.000  -0.000   0.000  -0.000  -0.000   0.000  -0.000   0.000   0.000  -0.000   0.000   0.000  -0.000  -0.000  -0.000
 -0.000  -0.000  -0.000   0.000   0.000   0.000   0.000   0.000   0.000  -0.000   0.000   0.000  -0.000   0.000   0.000  -0.000


------------------------ aborting loop because EDIFF is reached ----------------------------------------


 


 total charge     
 
# of ion       s       p       d       tot
------------------------------------------
    1        0.457   0.214   9.239   9.910
    2        0.459   0.282   9.206   9.946
    3        0.456   0.302   9.195   9.953
    4        0.442   0.235   9.226   9.904
    5        0.476   0.205   9.251   9.931
    6        0.457   0.274   9.212   9.942
    7        0.474   0.219   9.247   9.940
    8        0.483   0.208   9.237   9.928
    9        0.476   0.216   9.241   9.933
   10        0.459   0.208   9.251   9.919
   11        0.454   0.256   9.230   9.941
   12        0.472   0.191   9.257   9.920
   13        0.444   0.362   9.217  10.023
   14        0.457   0.289   9.209   9.954
   15        0.415   0.344   9.230   9.989
   16        0.472   0.192   9.251   9.915
   17        0.446   0.279   9.225   9.950
   18        0.458   0.205   9.253   9.916
   19        0.459   0.200   9.258   9.917
   20        0.453   0.409   9.215  10.077
   21        0.457   0.213   9.228   9.898
   22        0.447   0.286   9.214   9.947
   23        0.450   0.378   9.218  10.045
   24        0.453   0.204   9.240   9.898
   25        0.441   0.218   9.241   9.900
   26        0.471   0.214   9.241   9.926
   27        0.465   0.253   9.213   9.931
   28        0.459   0.215   9.245   9.919
   29        0.457   0.260   9.216   9.933
   30        0.463   0.282   9.211   9.957
   31        0.470   0.217   9.246   9.933
   32        0.451   0.330   9.190   9.971
   33        0.464   0.207   9.253   9.924
--------------------------------------------------
tot         15.117   8.367 304.605 328.090
 


 magnetization (x)
 
# of ion       s       p       d       tot
------------------------------------------
    1        0.004   0.010   0.003   0.017
    2        0.002   0.001   0.005   0.008
    3        0.027   0.002   0.001   0.031
    4        0.005   0.009   0.001   0.015
    5        0.003   0.004   0.009   0.016
    6        0.005   0.002   0.007   0.014
    7        0.003   0.010   0.003   0.016
    8        0.001   0.009   0.001   0.010
    9        0.000   0.002   0.008   0.010
   10        0.003   0.001   0.005   0.009
   11       -0.000   0.010  -0.004   0.006
   12       -0.000  -0.000  -0.000  -0.001
   13        0.000  -0.000   0.020   0.020
   14        0.013   0.006   0.005   0.023
   15        0.000  -0.000   0.019   0.018
   16       -0.000   0.009   0.002   0.010
   17       -0.000  -0.000  -0.001  -0.001
   18        0.008   0.002   0.002   0.012
   19        0.006   0.002   0.006   0.015
   20        0.001  -0.001   0.016   0.016
   21        0.001   0.011  -0.002   0.009
   22        0.002  -0.001   0.004   0.006
   23       -0.000  -0.001   0.021   0.020
   24        0.010   0.013   0.000   0.023
   25        0.010   0.008   0.006   0.024
   26        0.005   0.002   0.013   0.020
   27        0.010   0.004   0.004   0.019
   28       -0.001  -0.001   0.004   0.003
   29        0.007   0.002   0.004   0.013
   30        0.009   0.014   0.003   0.025
   31        0.005   0.002   0.001   0.008
   32        0.020   0.002   0.005   0.026
   33        0.002   0.010   0.003   0.015
--------------------------------------------------
tot          0.158   0.141   0.176   0.475
 
    CHARGE:  cpu time    0.1098: real time    0.1100
    FORLOC:  cpu time    0.0143: real time    0.0144
    FORNL :  cpu time    1.2077: real time    1.2103
    STRESS:  cpu time    1.6834: real time    1.6870
    FORCOR:  cpu time    0.1935: real time    0.1939
    FORHAR:  cpu time    0.0339: real time    0.0339
    MIXING:  cpu time    0.0066: real time    0.0066
    OFIELD:  cpu time    0.0000: real time    0.0000

  FORCE on cell =-STRESS in cart. coord.  units (eV):
  Direction    XX          YY          ZZ          XY          YZ          ZX
  --------------------------------------------------------------------------------------
  Alpha Z    83.46342    83.46342    83.46342
  Ewald   25143.05571 30717.37738 46380.96406 -6645.47116  2945.49756  1956.28391
  Hartree 39559.43376 44834.19534 59570.63385 -6123.68526  2674.17131  1819.91701
  E(xc)   -2119.24793 -2118.92552 -2117.81142    -0.73293     0.40499     0.18059
  Local  -67992.68614-78841.85287************ 12764.42108 -5612.74905 -3776.09624
  n-local  -768.59634  -767.80321  -765.11631    -2.26082     0.61903     0.78661
  augment  3108.21630  3107.71590  3099.56154     3.28602    -3.63266    -0.41292
  Kinetic  2977.21401  2976.16436  2965.25238     4.35970    -4.32351    -0.45436
  Fock        0.00000     0.00000     0.00000     0.00000     0.00000     0.00000
  -------------------------------------------------------------------------------------
  Total      -9.14723    -9.66520    -9.17767    -0.08337    -0.01233     0.20460
  in kB      -1.53588    -1.62285    -1.54099    -0.01400    -0.00207     0.03435
  external pressure =       -1.57 kB  Pullay stress =        0.00 kB


 VOLUME and BASIS-vectors are now :
 -----------------------------------------------------------------------------
  energy-cutoff  :      295.45
  volume of cell :     9542.10
      direct lattice vectors                 reciprocal lattice vectors
    21.210357000  0.000000000  0.000000000     0.047146778  0.000000000  0.000000000
     0.000000000 21.210357000  0.000000000     0.000000000  0.047146778  0.000000000
     0.000000000  0.000000000 21.210357000     0.000000000  0.000000000  0.047146778

  length of vectors
    21.210357000 21.210357000 21.210357000     0.047146778  0.047146778  0.047146778


 FORCES acting on ions
    electron-ion (+dipol)            ewald-force                    non-local-force                 convergence-correction
 -----------------------------------------------------------------------------------------------
   -.208E+04 -.576E+02 -.183E+03   0.207E+04 0.582E+02 0.183E+03   0.662E+01 -.695E+00 0.712E+00   0.703E-02 0.840E-02 -.465E-02
   -.120E+04 -.123E+04 -.733E+03   0.120E+04 0.123E+04 0.732E+03   0.192E+01 0.996E+00 0.132E+01   0.287E-02 0.573E-02 -.304E-02
   -.151E+04 -.106E+04 0.310E+03   0.151E+04 0.106E+04 -.310E+03   0.885E+00 0.447E+00 0.927E-01   -.683E-02 0.747E-03 0.137E-02
   -.187E+04 0.263E+03 0.784E+03   0.187E+04 -.261E+03 -.783E+03   0.443E+01 -.184E+01 -.172E+01   -.418E-02 0.387E-02 0.184E-02
   -.156E+04 -.102E+03 -.134E+04   0.155E+04 0.102E+03 0.134E+04   0.610E+01 0.164E-01 0.418E+01   -.116E-02 0.110E-02 -.256E-02
   -.112E+04 -.710E+03 0.151E+04   0.112E+04 0.709E+03 -.151E+04   0.206E+01 0.154E+01 -.241E+01   0.458E-02 -.205E-02 -.317E-03
   -.732E+03 -.184E+04 0.814E+03   0.730E+03 0.183E+04 -.811E+03   0.214E+01 0.739E+01 -.275E+01   0.300E-02 0.220E-03 0.103E-02
   -.129E+04 0.128E+04 -.106E+04   0.129E+04 -.128E+04 0.105E+04   0.449E+01 -.322E+01 0.328E+01   0.527E-02 0.293E-02 -.363E-02
   0.297E+03 -.119E+04 0.171E+04   -.297E+03 0.119E+04 -.170E+04   -.145E-01 0.427E+01 -.505E+01   -.112E-02 -.384E-02 0.373E-02
   -.923E+03 0.489E+03 0.183E+04   0.921E+03 -.487E+03 -.182E+04   0.250E+01 -.203E+01 -.697E+01   -.133E-02 -.812E-03 0.515E-02
   -.120E+04 0.160E+04 -.599E+02   0.120E+04 -.160E+04 0.602E+02   0.201E+01 -.149E+01 -.274E+00   -.183E-02 -.157E-02 -.670E-03
   -.532E+03 -.699E+03 -.183E+04   0.530E+03 0.696E+03 0.182E+04   0.183E+01 0.334E+01 0.662E+01   -.145E-02 -.467E-02 -.573E-02
   -.564E+03 0.305E+03 -.346E+03   0.563E+03 -.304E+03 0.346E+03   0.124E+01 -.139E+01 0.816E+00   0.217E-02 0.209E-03 0.843E-02
   -.271E+03 -.192E+04 -.206E+03   0.272E+03 0.192E+04 0.207E+03   -.353E+00 0.270E+01 -.316E+00   -.338E-02 0.464E-02 -.105E-02
   0.275E+03 -.521E+03 0.495E+03   -.275E+03 0.520E+03 -.494E+03   -.775E+00 0.743E+00 -.134E+01   -.480E-02 0.460E-02 -.338E-02
   -.871E+03 0.168E+04 0.899E+03   0.869E+03 -.168E+04 -.896E+03   0.273E+01 -.571E+01 -.272E+01   -.504E-02 -.211E-03 0.439E-02
   0.511E+03 0.105E+03 0.193E+04   -.510E+03 -.104E+03 -.193E+04   -.116E+01 -.674E+00 -.258E+01   0.499E-02 0.119E-02 0.404E-02
   0.200E+03 -.166E+04 -.125E+04   -.198E+03 0.165E+04 0.124E+04   -.141E+01 0.545E+01 0.443E+01   -.462E-02 -.252E-02 -.229E-02
   0.656E+03 0.142E+04 0.144E+04   -.653E+03 -.141E+04 -.143E+04   -.220E+01 -.527E+01 -.585E+01   0.698E-03 0.298E-02 0.236E-02
   -.154E+03 0.625E+03 0.642E+03   0.153E+03 -.625E+03 -.641E+03   0.985E+00 -.728E+00 -.132E+01   0.304E-02 0.245E-02 0.905E-02
   0.106E+04 -.172E+04 0.542E+03   -.106E+04 0.171E+04 -.540E+03   -.197E+01 0.408E+01 -.190E+01   -.188E-02 0.325E-02 -.308E-02
   -.219E+03 0.708E+03 -.170E+04   0.218E+03 -.708E+03 0.170E+04   0.627E+00 0.755E-01 0.810E+00   0.327E-02 -.131E-01 0.126E-01
   0.457E+03 -.404E+03 -.677E+03   -.457E+03 0.403E+03 0.676E+03   -.409E+00 0.615E+00 0.126E+01   0.658E-02 -.214E-02 -.699E-02
   0.141E+04 -.146E+04 -.565E+03   -.140E+04 0.146E+04 0.562E+03   -.432E+01 0.344E+01 0.303E+01   -.130E-02 -.185E-02 -.559E-02
   0.644E+03 0.198E+04 0.107E+03   -.642E+03 -.197E+04 -.107E+03   -.194E+01 -.606E+01 -.519E+00   -.348E-02 0.327E-02 0.989E-03
   0.167E+04 -.410E+03 0.124E+04   -.166E+04 0.408E+03 -.124E+04   -.556E+01 0.157E+01 -.403E+01   -.327E-02 -.233E-02 -.329E-02
   0.172E+03 0.183E+04 -.903E+03   -.172E+03 -.183E+04 0.902E+03   0.303E+00 -.410E+01 0.137E+01   0.313E-02 0.200E-02 -.214E-02
   0.880E+03 -.258E+03 -.184E+04   -.876E+03 0.256E+03 0.184E+04   -.354E+01 0.203E+01 0.461E+01   0.853E-03 -.738E-02 -.733E-02
   0.164E+04 0.910E+03 0.769E+03   -.164E+04 -.907E+03 -.769E+03   -.300E+01 -.306E+01 -.113E+00   0.564E-02 0.327E-02 0.349E-02
   0.195E+04 -.192E+03 0.130E+03   -.194E+04 0.191E+03 -.130E+03   -.236E+01 0.129E+01 0.123E+00   -.132E-02 -.337E-02 -.989E-03
   0.113E+04 0.118E+04 -.133E+04   -.113E+04 -.117E+04 0.132E+04   -.462E+01 -.386E+01 0.360E+01   0.550E-03 -.545E-02 -.214E-02
   0.124E+04 0.102E+04 -.244E+03   -.124E+04 -.102E+04 0.244E+03   0.847E-01 0.911E+00 0.211E-01   0.477E-04 0.467E-02 0.240E-02
   0.192E+04 0.495E+02 -.895E+03   -.191E+04 -.488E+02 0.892E+03   -.718E+01 -.665E+00 0.298E+01   0.335E-02 -.124E-02 0.237E-02
 -----------------------------------------------------------------------------------------------
   -.174E+00 -.142E+00 0.606E+00   0.682E-12 -.995E-12 -.216E-11   0.159E+00 0.109E+00 -.600E+00   0.101E-01 0.301E-02 0.442E-02
 
 
 POSITION                                       TOTAL-FORCE (eV/Angst)
 -----------------------------------------------------------------------------------
     13.90017     10.37195     11.37102        -0.000921      0.002331      0.015714
     12.20112     12.27715     12.44304         0.006437     -0.020757     -0.004086
     12.50261     11.97389     10.06465         0.014916     -0.010740     -0.004326
     13.27904      9.77535      9.03127        -0.002612     -0.006917     -0.000053
     13.39151     10.65665     13.74906         0.004971     -0.009070     -0.001154
     11.93405     11.52065      7.73862        -0.023598     -0.001170     -0.007877
     11.30508     13.67853      8.77012         0.009510      0.001898      0.002478
     12.99656      8.45341     12.83951         0.006776     -0.001305      0.009972
      9.80850     12.79842      7.15851         0.004438      0.008507      0.003648
     12.05614      9.25794      6.86556        -0.000682      0.003181      0.001224
     12.53106      7.87787     10.56265         0.003897      0.009838      0.000211
     11.56293     11.93165     14.77334        -0.000470      0.007956      0.015923
     11.57754     10.00490     11.32490        -0.004750     -0.001750     -0.017907
     10.61358     13.55286     11.03539        -0.009453     -0.009055     -0.006009
     10.04837     11.56329      9.46176         0.009138     -0.005906      0.009451
     12.12638      7.31329      8.29316         0.005340      0.006771     -0.000748
      9.83338     10.38841      7.01805        -0.016850      0.002865     -0.003337
     10.14531     13.41254     13.41776        -0.000470     -0.001676      0.004755
      9.89291      7.91693      7.42623         0.004664     -0.006592     -0.005235
     10.92183      9.35848      9.04180         0.000497     -0.002814     -0.015340
      8.71697     13.58065      9.33350         0.002185     -0.005803      0.010901
     11.13582      9.71875     13.85886        -0.004661      0.011331     -0.012990
      9.79483     11.43259     12.05118        -0.011571     -0.005253     -0.000492
      8.21282     13.23871     11.75498         0.005439      0.007337     -0.001421
     10.05160      7.32898      9.88353         0.003616      0.004796      0.001248
      7.86064     11.62626      7.92838         0.012713     -0.002563     -0.009952
     10.67912      7.81204     12.24561        -0.005999      0.000331     -0.004522
      9.23984     11.25062     14.41086         0.012355      0.006400      0.016305
      8.41038      9.38440      8.75883        -0.004686     -0.000024     -0.003836
      7.72139     11.31787     10.27962         0.002829      0.000220      0.003492
      8.89429      9.01152     13.41431        -0.007573      0.005942      0.003806
      9.08471      9.31333     11.04273        -0.005906     -0.000065      0.001694
      7.54039     10.87103     12.62210        -0.009522      0.011754     -0.001535
 -----------------------------------------------------------------------------------
    total drift:                               -0.005051     -0.029990      0.009691


--------------------------------------------------------------------------------------------------------



  FREE ENERGIE OF THE ION-ELECTRON SYSTEM (eV)
  ---------------------------------------------------
  free  energy   TOTEN  =       -95.57857757 eV

  energy  without entropy=      -95.57857757  energy(sigma->0) =      -95.57857757
 
 d Force = 0.9315342E-03[ 0.689E-03, 0.117E-02]  d Energy = 0.9229612E-03 0.857E-05
 d Force = 0.1013338E+02[ 0.102E+02, 0.101E+02]  d Ewald  = 0.1013337E+02 0.970E-06


--------------------------------------------------------------------------------------------------------


    POTLOK:  cpu time    0.2016: real time    0.2022


--------------------------------------------------------------------------------------------------------


 Conjugate gradient step on ions:
 trial-energy change:   -0.000923  1 .order   -0.000932   -0.001174   -0.000689
  (g-gl).g = 0.482E-03      g.g   = 0.570E-03  gl.gl    = 0.846E-03
 g(Force)  = 0.570E-03   g(Stress)= 0.000E+00 ortho     = 0.946E-05
 gamma     =   0.56983
 trial     =   2.04120
 opt step  =   6.38785  (harmonic =   4.94409) maximal distance =0.01387205
 next E    =   -95.579229   (d E  =  -0.00157)


--------------------------------------------------------------------------------------------------------


  
 reached required accuracy - stopping structural energy minimisation
     LOOP+:  cpu time   34.2485: real time   34.4047
    4ORBIT:  cpu time    0.0000: real time    0.0000
 


 total charge     
 
# of ion       s       p       d       tot
------------------------------------------
    1        0.457   0.214   9.239   9.910
    2        0.459   0.282   9.206   9.946
    3        0.456   0.302   9.195   9.953
    4        0.442   0.235   9.226   9.904
    5        0.476   0.205   9.251   9.931
    6        0.457   0.274   9.212   9.942
    7        0.474   0.219   9.247   9.940
    8        0.483   0.208   9.237   9.928
    9        0.476   0.216   9.241   9.933
   10        0.459   0.208   9.251   9.919
   11        0.454   0.256   9.230   9.941
   12        0.472   0.191   9.257   9.920
   13        0.444   0.362   9.217  10.023
   14        0.457   0.289   9.209   9.954
   15        0.415   0.344   9.230   9.989
   16        0.472   0.192   9.251   9.915
   17        0.446   0.279   9.225   9.950
   18        0.458   0.205   9.253   9.916
   19        0.459   0.200   9.258   9.917
   20        0.453   0.409   9.215  10.077
   21        0.457   0.213   9.228   9.898
   22        0.447   0.286   9.214   9.947
   23        0.450   0.378   9.218  10.045
   24        0.453   0.204   9.240   9.898
   25        0.441   0.218   9.241   9.900
   26        0.471   0.214   9.241   9.926
   27        0.465   0.253   9.213   9.931
   28        0.459   0.215   9.245   9.919
   29        0.457   0.260   9.216   9.933
   30        0.463   0.282   9.211   9.957
   31        0.470   0.217   9.246   9.933
   32        0.451   0.330   9.190   9.971
   33        0.464   0.207   9.253   9.924
--------------------------------------------------
tot         15.117   8.367 304.605 328.090
 


 magnetization (x)
 
# of ion       s       p       d       tot
------------------------------------------
    1        0.004   0.010   0.003   0.017
    2        0.002   0.001   0.005   0.008
    3        0.027   0.002   0.001   0.031
    4        0.005   0.009   0.001   0.015
    5        0.003   0.004   0.009   0.016
    6        0.005   0.002   0.007   0.014
    7        0.003   0.010   0.003   0.016
    8        0.001   0.009   0.001   0.010
    9        0.000   0.002   0.008   0.010
   10        0.003   0.001   0.005   0.009
   11       -0.000   0.010  -0.004   0.006
   12       -0.000  -0.000  -0.000  -0.001
   13        0.000  -0.000   0.020   0.020
   14        0.013   0.006   0.005   0.023
   15        0.000  -0.000   0.019   0.018
   16       -0.000   0.009   0.002   0.010
   17       -0.000  -0.000  -0.001  -0.001
   18        0.008   0.002   0.002   0.012
   19        0.006   0.002   0.006   0.015
   20        0.001  -0.001   0.016   0.016
   21        0.001   0.011  -0.002   0.009
   22        0.002  -0.001   0.004   0.006
   23       -0.000  -0.001   0.021   0.020
   24        0.010   0.013   0.000   0.023
   25        0.010   0.008   0.006   0.024
   26        0.005   0.002   0.013   0.020
   27        0.010   0.004   0.004   0.019
   28       -0.001  -0.001   0.004   0.003
   29        0.007   0.002   0.004   0.013
   30        0.009   0.014   0.003   0.025
   31        0.005   0.002   0.001   0.008
   32        0.020   0.002   0.005   0.026
   33        0.002   0.010   0.003   0.015
--------------------------------------------------
tot          0.158   0.141   0.176   0.475
 

 total amount of memory used by VASP MPI-rank0    63358. kBytes
=======================================================================

   base      :      30000. kBytes
   nonl-proj :       3080. kBytes
   fftplans  :       5726. kBytes
   grid      :      14618. kBytes
   one-center:         46. kBytes
   wavefun   :       9888. kBytes
 
  
  
 General timing and accounting informations for this job:
 ========================================================
  
                  Total CPU time used (sec):      467.066
                            User time (sec):      465.044
                          System time (sec):        2.022
                         Elapsed time (sec):      469.347
  
                   Maximum memory used (kb):      158900.
                   Average memory used (kb):           0.
  
                          Minor page faults:       214221
                          Major page faults:            0
                 Voluntary context switches:         6017
