 vasp.5.4.4.18Apr17-6-g9f103f2a35 (build Jan 23 2020 13:04:52) gamma-only       
  
 executed on           IFC91_ompi date 2020.12.30  13:55:41
 running on   44 total cores
 distrk:  each k-point on   44 cores,    1 groups
 distr:  one band on NCORES_PER_BAND=  11 cores,    4 groups


--------------------------------------------------------------------------------------------------------


 INCAR:
 POTCAR:    PAW_PBE Cu 22Jun2005                  
 POTCAR:    PAW_PBE Cu 22Jun2005                  
   VRHFIN =Cu: d10 p1                                                           
   LEXCH  = PE                                                                  
   EATOM  =  1390.9808 eV,  102.2342 Ry                                         
                                                                                
   TITEL  = PAW_PBE Cu 22Jun2005                                                
   LULTRA =        F    use ultrasoft PP ?                                      
   IUNSCR =        1    unscreen: 0-lin 1-nonlin 2-no                           
   RPACOR =    2.000    partial core radius                                     
   POMASS =   63.546; ZVAL   =   11.000    mass and valenz                      
   RCORE  =    2.300    outmost cutoff radius                                   
   RWIGS  =    2.200; RWIGS  =    1.164    wigner-seitz radius (au A)           
   ENMAX  =  295.446; ENMIN  =  221.585 eV                                      
   ICORE  =        3    local potential                                         
   LCOR   =        T    correct aug charges                                     
   LPAW   =        T    paw PP                                                  
   EAUG   =  586.980                                                            
   DEXC   =    0.000                                                            
   RMAX   =    2.344    core radius for proj-oper                               
   RAUG   =    1.300    factor for augmentation sphere                          
   RDEP   =    2.302    radius for radial grids                                 
   RDEPT  =    1.771    core radius for aug-charge                              
                                                                                
   Atomic configuration                                                         
    9 entries                                                                   
     n  l   j            E        occ.                                          
     1  0  0.50     -8850.2468   2.0000                                         
     2  0  0.50     -1062.3498   2.0000                                         
     2  1  1.50      -916.8226   6.0000                                         
     3  0  0.50      -114.6929   2.0000                                         
     3  1  1.50       -72.1325   6.0000                                         
     3  2  2.50        -5.0394  10.0000                                         
     4  0  0.50        -4.6097   1.0000                                         
     4  1  0.50        -4.0817   0.0000                                         
     4  3  2.50        -1.3606   0.0000                                         
   Description                                                                  
     l       E           TYP  RCUT    TYP  RCUT                                 
     2     -5.0393973     23  2.200                                             
     2     10.8846608     23  2.200                                             
     0     -4.6097109     23  2.200                                             
     0      8.2520465     23  2.200                                             
     1     -2.7211652     23  2.200                                             
     1     21.7055443     23  2.200                                             
     3      2.7211652     23  2.300                                             
  local pseudopotential read in
  partial core-charges read in
  partial kinetic energy density read in
  atomic valenz-charges read in
  non local Contribution for L=           2  read in
    real space projection operators read in
  non local Contribution for L=           2  read in
    real space projection operators read in
  non local Contribution for L=           0  read in
    real space projection operators read in
  non local Contribution for L=           0  read in
    real space projection operators read in
  non local Contribution for L=           1  read in
    real space projection operators read in
  non local Contribution for L=           1  read in
    real space projection operators read in
    PAW grid and wavefunctions read in
 
   number of l-projection  operators is LMAX  =           6
   number of lm-projection operators is LMMAX =          18
 

 ----------------------------------------------------------------------------- 
|                                                                             |
|  ADVICE TO THIS USER RUNNING 'VASP/VAMP'   (HEAR YOUR MASTER'S VOICE ...):  |
|                                                                             |
|      You have a (more or less) 'large supercell' and for larger cells       |
|      it might be more efficient to use real space projection opertators     |
|      So try LREAL= Auto  in the INCAR   file.                               |
|      Mind:          For very  accurate calculation you might also keep the  |
|      reciprocal projection scheme          (i.e. LREAL=.FALSE.)             |
|                                                                             |
 ----------------------------------------------------------------------------- 

  PAW_PBE Cu 22Jun2005                  :
 energy of atom  1       EATOM=-1390.9808
 kinetic energy error for atom=    0.0452 (will be added to EATOM!!)
 
 
 POSCAR: unknown system                          
  positions in direct lattice
  No initial velocities read in
 exchange correlation table for  LEXCH =        8
   RHO(1)=    0.500       N(1)  =     2000
   RHO(2)=  100.500       N(2)  =     4000
 


--------------------------------------------------------------------------------------------------------


 ion  position               nearest neighbor table
   1  0.537  0.500  0.402-  12 2.35   7 2.38  32 2.39  31 2.39   5 2.40   2 2.40   3 2.53  19 2.59
                            24 2.66  23 2.67  21 2.69
   2  0.464  0.574  0.370-  34 2.40   1 2.40  24 2.45   6 2.48  32 2.50   7 2.59
   3  0.590  0.406  0.442-  23 2.41   5 2.46  19 2.53   1 2.53  20 2.55  16 2.56  12 2.61  31 2.62

   4  0.408  0.389  0.477-  27 2.38  16 2.41  25 2.45  24 2.50  31 2.52  19 2.55  18 2.63
   5  0.579  0.427  0.333-   1 2.40  33 2.42   3 2.46  32 2.52  19 2.54  12 2.55
   6  0.407  0.580  0.467-  11 2.45  24 2.48   2 2.48  34 2.51  10 2.52  21 2.60  27 2.64
   7  0.574  0.601  0.399-   1 2.38   8 2.44  30 2.46  34 2.48  21 2.58   2 2.59  12 2.70
   8  0.583  0.666  0.488-  14 2.39   7 2.44   9 2.46  34 2.47  21 2.49  30 2.51
   9  0.610  0.591  0.566-  14 2.42   8 2.46  29 2.48  21 2.50  30 2.51  17 2.51  23 2.52
  10  0.338  0.575  0.558-  27 2.42  11 2.44  22 2.46   6 2.52  26 2.54
  11  0.440  0.532  0.561-  21 2.42  22 2.42  27 2.44  10 2.44   6 2.45  29 2.45  26 2.45  17 2.52
                            31 2.53  15 2.53
  12  0.644  0.501  0.395-   1 2.35  23 2.43  30 2.48   5 2.55   3 2.61   7 2.70
  13  0.416  0.399  0.676-  18 2.35  15 2.46  26 2.50  28 2.57  25 2.58
  14  0.681  0.668  0.535-   8 2.39  30 2.40   9 2.42
  15  0.466  0.499  0.668-  22 2.40  28 2.42  17 2.44  13 2.46  26 2.52  11 2.53  29 2.66
  16  0.506  0.345  0.494-   4 2.41  20 2.43  31 2.50  19 2.51  18 2.52   3 2.56
  17  0.546  0.500  0.591-  20 2.38  29 2.38  15 2.44  23 2.46   9 2.51  11 2.52  28 2.55  31 2.59
                            21 2.67  18 2.76
  18  0.463  0.406  0.581-  13 2.35  28 2.37  31 2.37  25 2.38  16 2.52  20 2.56   4 2.63  17 2.76

  19  0.487  0.394  0.393-  33 2.43  24 2.49  32 2.50  16 2.51   3 2.53   5 2.54   4 2.55   1 2.59
                            31 2.62
  20  0.577  0.402  0.557-  17 2.38  16 2.43  23 2.54   3 2.55  18 2.56  28 2.57  31 2.57
  21  0.520  0.573  0.498-  11 2.42  34 2.43   8 2.49   9 2.50  23 2.58   7 2.58  31 2.59   6 2.60
                            29 2.67  17 2.67   1 2.69
  22  0.402  0.585  0.649-  15 2.40  11 2.42  10 2.46  26 2.47  29 2.50
  23  0.609  0.497  0.500-   3 2.41  30 2.43  12 2.43  17 2.46   9 2.52  20 2.54  21 2.58  31 2.63
                             1 2.67
  24  0.418  0.482  0.413-   2 2.45   6 2.48  19 2.49  27 2.50   4 2.50  31 2.52  32 2.53   1 2.66

  25  0.357  0.386  0.576-  18 2.38  26 2.40   4 2.45  27 2.54  13 2.58
  26  0.362  0.483  0.624-  25 2.40  11 2.45  22 2.47  13 2.50  15 2.52  27 2.53  10 2.54
  27  0.358  0.479  0.509-   4 2.38  10 2.42  11 2.44  24 2.50  26 2.53  25 2.54   6 2.64
  28  0.532  0.411  0.664-  18 2.37  15 2.42  17 2.55  20 2.57  13 2.57
  29  0.510  0.599  0.616-  17 2.38  11 2.45   9 2.48  22 2.50  15 2.66  21 2.67
  30  0.662  0.587  0.465-  14 2.40  23 2.43   7 2.46  12 2.48   9 2.51   8 2.51
  31  0.496  0.458  0.493-  18 2.37   1 2.39  16 2.50   4 2.52  24 2.52  11 2.53  20 2.57  17 2.59
                            21 2.59   3 2.62  19 2.62  23 2.63
  32  0.477  0.476  0.315-   1 2.39  33 2.40   2 2.50  19 2.50   5 2.52  24 2.53
  33  0.497  0.373  0.286-  32 2.40   5 2.42  19 2.43
  34  0.484  0.657  0.436-   2 2.40  21 2.43   8 2.47   7 2.48   6 2.51
 
  LATTYP: Found a simple cubic cell.
 ALAT       =    22.0590350000
  
  Lattice vectors:
  
 A1 = (  22.0590350000,   0.0000000000,   0.0000000000)
 A2 = (   0.0000000000,  22.0590350000,   0.0000000000)
 A3 = (   0.0000000000,   0.0000000000,  22.0590350000)


Analysis of symmetry for initial positions (statically):
=====================================================================
 Subroutine PRICEL returns:
 Original cell was already a primitive cell.
 

 Routine SETGRP: Setting up the symmetry group for a 
 simple cubic supercell.


 Subroutine GETGRP returns: Found  1 space group operations
 (whereof  1 operations were pure point group operations)
 out of a pool of 48 trial point group operations.


The static configuration has the point symmetry C_1 .


Analysis of symmetry for dynamics (positions and initial velocities):
=====================================================================
 Subroutine PRICEL returns:
 Original cell was already a primitive cell.
 

 Routine SETGRP: Setting up the symmetry group for a 
 simple cubic supercell.


 Subroutine GETGRP returns: Found  1 space group operations
 (whereof  1 operations were pure point group operations)
 out of a pool of 48 trial point group operations.


The dynamic configuration has the point symmetry C_1 .


Analysis of structural, dynamic, and magnetic symmetry:
=====================================================================
 Subroutine PRICEL returns:
 Original cell was already a primitive cell.
 

 Routine SETGRP: Setting up the symmetry group for a 
 simple cubic supercell.


 Subroutine GETGRP returns: Found  1 space group operations
 (whereof  1 operations were pure point group operations)
 out of a pool of 48 trial point group operations.


The magnetic configuration has the point symmetry C_1 .


 Subroutine INISYM returns: Found  1 space group operations
 (whereof  1 operations are pure point group operations),
 and found     1 'primitive' translations

 
 
 KPOINTS: Gamma-point only                        
  k-points in reciprocal lattice
Space group operators:
 irot       det(A)        alpha          n_x          n_y          n_z        tau_x        tau_y        tau_z
    1     1.000000     0.000001     1.000000     0.000000     0.000000     0.000000     0.000000     0.000000


--------------------------------------------------------------------------------------------------------




 Dimension of arrays:
   k-points           NKPTS =      1   k-points in BZ     NKDIM =      1   number of bands    NBANDS=    276
   number of dos      NEDOS =    301   number of ions     NIONS =     34
   non local maximal  LDIM  =      6   non local SUM 2l+1 LMDIM =     18
   total plane-waves  NPLWV = 884736
   max r-space proj   IRMAX =      1   max aug-charges    IRDMAX=   2587
   dimension x,y,z NGX =    96 NGY =   96 NGZ =   96
   dimension x,y,z NGXF=   192 NGYF=  192 NGZF=  192
   support grid    NGXF=   192 NGYF=  192 NGZF=  192
   ions per type =              34
   NGX,Y,Z   is equivalent  to a cutoff of   7.23,  7.23,  7.23 a.u.
   NGXF,Y,Z  is equivalent  to a cutoff of  14.47, 14.47, 14.47 a.u.

 SYSTEM =  unknown system                          
 POSCAR =  unknown system                          

 Startparameter for this run:
   NWRITE =      2    write-flag & timer
   PREC   = normal    normal or accurate (medium, high low for compatibility)
   ISTART =      0    job   : 0-new  1-cont  2-samecut
   ICHARG =      2    charge: 1-file 2-atom 10-const
   ISPIN  =      2    spin polarized calculation?
   LNONCOLLINEAR =      F non collinear calculations
   LSORBIT =      F    spin-orbit coupling
   INIWAV =      1    electr: 0-lowe 1-rand  2-diag
   LASPH  =      F    aspherical Exc in radial PAW
   METAGGA=      F    non-selfconsistent MetaGGA calc.

 Electronic Relaxation 1
   ENCUT  =  295.4 eV  21.71 Ry    4.66 a.u.  30.92 30.92 30.92*2*pi/ulx,y,z
   ENINI  =  295.4     initial cutoff
   ENAUG  =  587.0 eV  augmentation charge cutoff
   NELM   =     60;   NELMIN=  2; NELMDL= -5     # of ELM steps 
   EDIFF  = 0.1E-04   stopping-criterion for ELM
   LREAL  =      F    real-space projection
   NLSPLINE    = F    spline interpolate recip. space projectors
   LCOMPAT=      F    compatible to vasp.4.4
   GGA_COMPAT  = T    GGA compatible to vasp.4.4-vasp.4.6
   LMAXPAW     = -100 max onsite density
   LMAXMIX     =    2 max onsite mixed and CHGCAR
   VOSKOWN=      0    Vosko Wilk Nusair interpolation
   ROPT   =    0.00000
 Ionic relaxation
   EDIFFG = -.1E+00   stopping-criterion for IOM
   NSW    =    101    number of steps for IOM
   NBLOCK =      1;   KBLOCK =    101    inner block; outer block 
   IBRION =      2    ionic relax: 0-MD 1-quasi-New 2-CG
   NFREE  =      1    steps in history (QN), initial steepest desc. (CG)
   ISIF   =      2    stress and relaxation
   IWAVPR =     11    prediction:  0-non 1-charg 2-wave 3-comb
   ISYM   =      2    0-nonsym 1-usesym 2-fastsym
   LCORR  =      T    Harris-Foulkes like correction to forces

   POTIM  = 0.5000    time-step for ionic-motion
   TEIN   =    0.0    initial temperature
   TEBEG  =    0.0;   TEEND  =   0.0 temperature during run
   SMASS  =  -3.00    Nose mass-parameter (am)
   estimated Nose-frequenzy (Omega)   =  0.10E-29 period in steps =****** mass=  -0.111E-25a.u.
   SCALEE = 1.0000    scale energy and forces
   NPACO  =    256;   APACO  = 16.0  distance and # of slots for P.C.
   PSTRESS=    0.0 pullay stress

  Mass of Ions in am
   POMASS =  63.55
  Ionic Valenz
   ZVAL   =  11.00
  Atomic Wigner-Seitz radii
   RWIGS  =  -1.00
  virtual crystal weights 
   VCA    =   1.00
   NELECT =     374.0000    total number of electrons
   NUPDOWN=      -1.0000    fix difference up-down

 DOS related values:
   EMIN   =  10.00;   EMAX   =-10.00  energy-range for DOS
   EFERMI =   0.00
   ISMEAR =     0;   SIGMA  =   0.00  broadening in eV -4-tet -1-fermi 0-gaus

 Electronic relaxation 2 (details)
   IALGO  =     38    algorithm
   LDIAG  =      T    sub-space diagonalisation (order eigenvalues)
   LSUBROT=      F    optimize rotation matrix (better conditioning)
   TURBO    =      0    0=normal 1=particle mesh
   IRESTART =      0    0=no restart 2=restart with 2 vectors
   NREBOOT  =      0    no. of reboots
   NMIN     =      0    reboot dimension
   EREF     =   0.00    reference energy to select bands
   IMIX   =      4    mixing-type and parameters
     AMIX     =   0.40;   BMIX     =  1.00
     AMIX_MAG =   1.60;   BMIX_MAG =  1.00
     AMIN     =   0.10
     WC   =   100.;   INIMIX=   1;  MIXPRE=   1;  MAXMIX= -45

 Intra band minimization:
   WEIMIN = 0.0010     energy-eigenvalue tresh-hold
   EBREAK =  0.91E-08  absolut break condition
   DEPER  =   0.30     relativ break condition  

   TIME   =   0.40     timestep for ELM

  volume/ion in A,a.u.               =     315.70      2130.48
  Fermi-wavevector in a.u.,A,eV,Ry     =   0.534702  1.010441  3.889997  0.285907
  Thomas-Fermi vector in A             =   1.559229
 
 Write flags
   LWAVE        =      F    write WAVECAR
   LDOWNSAMPLE  =      F    k-point downsampling of WAVECAR
   LCHARG       =      F    write CHGCAR
   LVTOT        =      F    write LOCPOT, total local potential
   LVHAR        =      F    write LOCPOT, Hartree potential only
   LELF         =      F    write electronic localiz. function (ELF)
   LORBIT       =     11    0 simple, 1 ext, 2 COOP (PROOUT), +10 PAW based schemes


 Dipole corrections
   LMONO  =      F    monopole corrections only (constant potential shift)
   LDIPOL =      F    correct potential (dipole corrections)
   IDIPOL =      0    1-x, 2-y, 3-z, 4-all directions 
   EPSILON=  1.0000000 bulk dielectric constant

 Exchange correlation treatment:
   GGA     =    PE    GGA type
   LEXCH   =     8    internal setting for exchange type
   VOSKOWN=      0    Vosko Wilk Nusair interpolation
   LHFCALC =     F    Hartree Fock is set to
   LHFONE  =     F    Hartree Fock one center treatment
   AEXX    =    0.0000 exact exchange contribution

 Linear response parameters
   LEPSILON=     F    determine dielectric tensor
   LRPA    =     F    only Hartree local field effects (RPA)
   LNABLA  =     F    use nabla operator in PAW spheres
   LVEL    =     F    velocity operator in full k-point grid
   LINTERFAST=   F  fast interpolation
   KINTER  =     0    interpolate to denser k-point grid
   CSHIFT  =0.1000    complex shift for real part using Kramers Kronig
   OMEGAMAX=  -1.0    maximum frequency
   DEG_THRESHOLD= 0.2000000E-02 threshold for treating states as degnerate
   RTIME   =   -0.100 relaxation time in fs
  (WPLASMAI=    0.000 imaginary part of plasma frequency in eV, 0.658/RTIME)
   DFIELD  = 0.0000000 0.0000000 0.0000000 field for delta impulse in time
 
 Orbital magnetization related:
   ORBITALMAG=     F  switch on orbital magnetization
   LCHIMAG   =     F  perturbation theory with respect to B field
   DQ        =  0.001000  dq finite difference perturbation B field
   LLRAUG    =     F  two centre corrections for induced B field



--------------------------------------------------------------------------------------------------------


 conjugate gradient relaxation of ions
 charge density and potential will be updated during run
 spin polarized calculation
 Variant of blocked Davidson
 Davidson routine will perform the subspace rotation
 perform sub-space diagonalisation
    after iterative eigenvector-optimisation
 modified Broyden-mixing scheme, WC =      100.0
 initial mixing is a Kerker type mixing with AMIX =  0.4000 and BMIX =      1.0000
 Hartree-type preconditioning will be used
 using additional bands           89
 reciprocal scheme for non local part
 use partial core corrections
 calculate Harris-corrections to forces 
   (improved forces if not selfconsistent)
 use gradient corrections 
 use of overlap-Matrix (Vanderbilt PP)
 Gauss-broadening in eV      SIGMA  =   0.00


--------------------------------------------------------------------------------------------------------


  energy-cutoff  :      295.45
  volume of cell :    10733.95
      direct lattice vectors                 reciprocal lattice vectors
    22.059035000  0.000000000  0.000000000     0.045332899  0.000000000  0.000000000
     0.000000000 22.059035000  0.000000000     0.000000000  0.045332899  0.000000000
     0.000000000  0.000000000 22.059035000     0.000000000  0.000000000  0.045332899

  length of vectors
    22.059035000 22.059035000 22.059035000     0.045332899  0.045332899  0.045332899


 
 k-points in units of 2pi/SCALE and weight: Gamma-point only                        
   0.00000000  0.00000000  0.00000000       1.000
 
 k-points in reciprocal lattice and weights: Gamma-point only                        
   0.00000000  0.00000000  0.00000000       1.000
 
 position of ions in fractional coordinates (direct lattice) 
   0.53727323  0.50006883  0.40203718
   0.46359474  0.57366918  0.37020560
   0.58994919  0.40614026  0.44190354
   0.40753534  0.38865538  0.47724085
   0.57916935  0.42747762  0.33275718
   0.40656279  0.57974364  0.46700946
   0.57424909  0.60136020  0.39852681
   0.58333636  0.66577637  0.48774065
   0.60956160  0.59061992  0.56573872
   0.33834372  0.57505322  0.55842096
   0.44009828  0.53154777  0.56109661
   0.64366600  0.50077192  0.39503642
   0.41642975  0.39920484  0.67641070
   0.68078473  0.66813532  0.53540916
   0.46589636  0.49879488  0.66798086
   0.50622123  0.34527429  0.49424294
   0.54564839  0.49975934  0.59124253
   0.46327314  0.40582761  0.58116881
   0.48681549  0.39443207  0.39345374
   0.57656496  0.40248160  0.55672062
   0.52009143  0.57306715  0.49830629
   0.40197536  0.58497881  0.64924250
   0.60888049  0.49718773  0.49967418
   0.41841885  0.48181950  0.41336004
   0.35741685  0.38556205  0.57644372
   0.36193509  0.48337422  0.62371614
   0.35796608  0.47887315  0.50923227
   0.53176847  0.41107047  0.66384085
   0.50952284  0.59856998  0.61606521
   0.66228261  0.58689482  0.46519173
   0.49643304  0.45827882  0.49318825
   0.47736421  0.47574946  0.31520753
   0.49653175  0.37262263  0.28575994
   0.48443921  0.65715696  0.43642799
 
 position of ions in cartesian coordinates  (Angst):
  11.85172899 11.03103582  8.86855222
  10.22645260 12.65458852  8.16637829
  13.01370983  8.95906221  9.74796566
   8.98983633  8.57336263 10.52747261
  12.77591696  9.42974378  7.34030228
   8.96838281 12.78858525 10.30177802
  12.66738078 13.26542570  8.79111685
  12.86783718 14.68638425 10.75908807
  13.44634067 13.02850549 12.47965023
   7.46353596 12.68511911 12.31822750
   9.70814336 11.72543086 12.37724976
  14.19865082 11.04654531  8.71412222
   9.18603843  8.80607354 14.92096731
  15.01745419 14.73842041 11.81060940
  10.27722411 11.00293372 14.73501317
  11.16675183  7.61641765 10.90252231
  12.03647693 11.02420877 13.04223966
  10.21935841  8.95216545 12.82002312
  10.73867993  8.70079084  8.67920982
  12.71846663  8.87835570 12.28071964
  11.47271506 12.64130832 10.99215589
   8.86718854 12.90406804 14.32166303
  13.43131604 10.96748154 11.02233023
   9.22991606 10.62847321  9.11832359
   7.88427080  8.50512676 12.71579220
   7.98393882 10.66276884 13.75857616
   7.89638629 10.56347958 11.23317247
  11.73029929  9.06781789 14.64368854
  11.23958216 13.20387614 13.58980403
  14.60931527 12.94633338 10.26168065
  10.95083380 10.10918853 10.87925687
  10.53019382 10.49457399  6.95317394
  10.95301125  8.21969564  6.30358852
  10.68626149 14.49624838  9.62718031
 


--------------------------------------------------------------------------------------------------------


 use parallel FFT for orbitals z direction half grid
 k-point  1 :   0.0000 0.0000 0.0000  plane waves:   61953

 maximum and minimum number of plane-waves per node :      5639     5626

 maximum number of plane-waves:     61953
 maximum index in each direction: 
   IXMAX=   30   IYMAX=   30   IZMAX=   30
   IXMIN=  -30   IYMIN=  -30   IZMIN=    0


 parallel 3D FFT for wavefunctions:
    minimum data exchange during FFTs selected (reduces bandwidth)
 parallel 3D FFT for charge:
    minimum data exchange during FFTs selected (reduces bandwidth)


 total amount of memory used by VASP MPI-rank0    74387. kBytes
=======================================================================

   base      :      30000. kBytes
   nonl-proj :       3880. kBytes
   fftplans  :       7872. kBytes
   grid      :      20041. kBytes
   one-center:         62. kBytes
   wavefun   :      12532. kBytes
 
     INWAV:  cpu time    0.0000: real time    0.0002
 Broyden mixing: mesh for mixing (old mesh)
   NGX = 61   NGY = 61   NGZ = 61
  (NGX  =192   NGY  =192   NGZ  =192)
  gives a total of 226981 points

 initial charge density was supplied:
 charge density of overlapping atoms calculated
 number of electron     374.0000000 magnetization     102.0000000
 keeping initial charge density in first step


--------------------------------------------------------------------------------------------------------


 Maximum index for augmentation-charges          210 (set IRDMAX)


--------------------------------------------------------------------------------------------------------


 First call to EWALD:  gamma=   0.080
 Maximum number of real-space cells 3x 3x 3
 Maximum number of reciprocal cells 3x 3x 3

    FEWALD:  cpu time    0.0040: real time    0.0016


--------------------------------------- Iteration      1(   1)  ---------------------------------------


    POTLOK:  cpu time    0.3520: real time    0.3607
    SETDIJ:  cpu time    0.0080: real time    0.0080
     EDDAV:  cpu time    6.0880: real time    6.0968
       DOS:  cpu time    0.0000: real time    0.0004
    --------------------------------------------
      LOOP:  cpu time    6.4480: real time    6.4660

 eigenvalue-minimisations  :  1120
 total energy-change (2. order) : 0.2439977E+04  (-0.8446784E+04)
 number of electron     374.0000000 magnetization     102.0000000
 augmentation part      374.0000000 magnetization     102.0000000

 Free energy of the ion-electron system (eV)
  ---------------------------------------------------
  alpha Z        PSCENC =        78.76087424
  Ewald energy   TEWEN  =    106388.43158688
  -Hartree energ DENC   =   -149552.06985527
  -exchange      EXHF   =         0.00000000
  -V(xc)+E(xc)   XCENC  =      1567.75816674
  PAW double counting   =     41725.38411329   -45318.45981313
  entropy T*S    EENTRO =         0.00000000
  eigenvalues    EBANDS =       258.36178329
  atomic energy  EATOM  =     47291.80987837
  Solvation  Ediel_sol  =         0.00000000
  ---------------------------------------------------
  free energy    TOTEN  =      2439.97673441 eV

  energy without entropy =     2439.97673441  energy(sigma->0) =     2439.97673441


--------------------------------------------------------------------------------------------------------




--------------------------------------- Iteration      1(   2)  ---------------------------------------


     EDDAV:  cpu time    6.1800: real time    6.1899
       DOS:  cpu time    0.0000: real time    0.0003
    --------------------------------------------
      LOOP:  cpu time    6.1800: real time    6.1902

 eigenvalue-minimisations  :  1144
 total energy-change (2. order) :-0.2331299E+04  (-0.2108120E+04)
 number of electron     374.0000000 magnetization     102.0000000
 augmentation part      374.0000000 magnetization     102.0000000

 Free energy of the ion-electron system (eV)
  ---------------------------------------------------
  alpha Z        PSCENC =        78.76087424
  Ewald energy   TEWEN  =    106388.43158688
  -Hartree energ DENC   =   -149552.06985527
  -exchange      EXHF   =         0.00000000
  -V(xc)+E(xc)   XCENC  =      1567.75816674
  PAW double counting   =     41725.38411329   -45318.45981313
  entropy T*S    EENTRO =         0.00000000
  eigenvalues    EBANDS =     -2072.93734938
  atomic energy  EATOM  =     47291.80987837
  Solvation  Ediel_sol  =         0.00000000
  ---------------------------------------------------
  free energy    TOTEN  =       108.67760174 eV

  energy without entropy =      108.67760174  energy(sigma->0) =      108.67760174


--------------------------------------------------------------------------------------------------------




--------------------------------------- Iteration      1(   3)  ---------------------------------------


     EDDAV:  cpu time    7.1640: real time    7.1725
       DOS:  cpu time    0.0000: real time    0.0004
    --------------------------------------------
      LOOP:  cpu time    7.1640: real time    7.1728

 eigenvalue-minimisations  :  1384
 total energy-change (2. order) :-0.1676448E+03  (-0.1578090E+03)
 number of electron     374.0000000 magnetization     102.0000000
 augmentation part      374.0000000 magnetization     102.0000000

 Free energy of the ion-electron system (eV)
  ---------------------------------------------------
  alpha Z        PSCENC =        78.76087424
  Ewald energy   TEWEN  =    106388.43158688
  -Hartree energ DENC   =   -149552.06985527
  -exchange      EXHF   =         0.00000000
  -V(xc)+E(xc)   XCENC  =      1567.75816674
  PAW double counting   =     41725.38411329   -45318.45981313
  entropy T*S    EENTRO =        -0.00000000
  eigenvalues    EBANDS =     -2240.58217748
  atomic energy  EATOM  =     47291.80987837
  Solvation  Ediel_sol  =         0.00000000
  ---------------------------------------------------
  free energy    TOTEN  =       -58.96722636 eV

  energy without entropy =      -58.96722636  energy(sigma->0) =      -58.96722636


--------------------------------------------------------------------------------------------------------




--------------------------------------- Iteration      1(   4)  ---------------------------------------


     EDDAV:  cpu time    7.1360: real time    7.1502
       DOS:  cpu time    0.0000: real time    0.0003
    --------------------------------------------
      LOOP:  cpu time    7.1360: real time    7.1505

 eigenvalue-minimisations  :  1376
 total energy-change (2. order) :-0.9464978E+01  (-0.9129715E+01)
 number of electron     374.0000000 magnetization     102.0000000
 augmentation part      374.0000000 magnetization     102.0000000

 Free energy of the ion-electron system (eV)
  ---------------------------------------------------
  alpha Z        PSCENC =        78.76087424
  Ewald energy   TEWEN  =    106388.43158688
  -Hartree energ DENC   =   -149552.06985527
  -exchange      EXHF   =         0.00000000
  -V(xc)+E(xc)   XCENC  =      1567.75816674
  PAW double counting   =     41725.38411329   -45318.45981313
  entropy T*S    EENTRO =         0.00000000
  eigenvalues    EBANDS =     -2250.04715572
  atomic energy  EATOM  =     47291.80987837
  Solvation  Ediel_sol  =         0.00000000
  ---------------------------------------------------
  free energy    TOTEN  =       -68.43220460 eV

  energy without entropy =      -68.43220460  energy(sigma->0) =      -68.43220460


--------------------------------------------------------------------------------------------------------




--------------------------------------- Iteration      1(   5)  ---------------------------------------


     EDDAV:  cpu time    7.2040: real time    7.2059
       DOS:  cpu time    0.0000: real time    0.0006
    CHARGE:  cpu time    0.1560: real time    0.1551
    MIXING:  cpu time    0.0080: real time    0.0089
    --------------------------------------------
      LOOP:  cpu time    7.3680: real time    7.3705

 eigenvalue-minimisations  :  1392
 total energy-change (2. order) :-0.3257235E+00  (-0.3248760E+00)
 number of electron     374.0000687 magnetization      92.1543992
 augmentation part      220.8344322 magnetization      88.6876403

 Broyden mixing:
  rms(total) = 0.10423E+02    rms(broyden)= 0.10422E+02
  rms(prec ) = 0.10541E+02
  weight for this iteration     100.00

 Free energy of the ion-electron system (eV)
  ---------------------------------------------------
  alpha Z        PSCENC =        78.76087424
  Ewald energy   TEWEN  =    106388.43158688
  -Hartree energ DENC   =   -149552.06985527
  -exchange      EXHF   =         0.00000000
  -V(xc)+E(xc)   XCENC  =      1567.75816674
  PAW double counting   =     41725.38411329   -45318.45981313
  entropy T*S    EENTRO =         0.00000000
  eigenvalues    EBANDS =     -2250.37287925
  atomic energy  EATOM  =     47291.80987837
  Solvation  Ediel_sol  =         0.00000000
  ---------------------------------------------------
  free energy    TOTEN  =       -68.75792814 eV

  energy without entropy =      -68.75792814  energy(sigma->0) =      -68.75792814


--------------------------------------------------------------------------------------------------------




--------------------------------------- Iteration      1(   6)  ---------------------------------------


    POTLOK:  cpu time    0.3320: real time    0.3424
    SETDIJ:  cpu time    0.0080: real time    0.0078
     EDDAV:  cpu time    6.3600: real time    6.3602
       DOS:  cpu time    0.0000: real time    0.0006
    CHARGE:  cpu time    0.1560: real time    0.1547
    MIXING:  cpu time    0.0080: real time    0.0092
    --------------------------------------------
      LOOP:  cpu time    6.8640: real time    6.8749

 eigenvalue-minimisations  :  1188
 total energy-change (2. order) : 0.2356373E+03  (-0.1390996E+03)
 number of electron     374.0000773 magnetization      85.3309085
 augmentation part      257.8186998 magnetization      55.5618342

 Broyden mixing:
  rms(total) = 0.49694E+01    rms(broyden)= 0.49665E+01
  rms(prec ) = 0.51669E+01
  weight for this iteration     100.00

 eigenvalues of (default mixing * dielectric matrix)
  average eigenvalue GAMMA=   0.9412
  0.9412

 Free energy of the ion-electron system (eV)
  ---------------------------------------------------
  alpha Z        PSCENC =        78.76087424
  Ewald energy   TEWEN  =    106388.43158688
  -Hartree energ DENC   =   -148594.05837691
  -exchange      EXHF   =         0.00000000
  -V(xc)+E(xc)   XCENC  =      1692.41409354
  PAW double counting   =     41877.83371921   -45292.65980919
  entropy T*S    EENTRO =         0.00000000
  eigenvalues    EBANDS =     -3275.65257946
  atomic energy  EATOM  =     47291.80987837
  Solvation  Ediel_sol  =         0.00000000
  ---------------------------------------------------
  free energy    TOTEN  =       166.87938667 eV

  energy without entropy =      166.87938667  energy(sigma->0) =      166.87938667


--------------------------------------------------------------------------------------------------------




--------------------------------------- Iteration      1(   7)  ---------------------------------------


    POTLOK:  cpu time    0.3320: real time    0.3498
    SETDIJ:  cpu time    0.0080: real time    0.0077
     EDDAV:  cpu time    6.7680: real time    6.7689
       DOS:  cpu time    0.0000: real time    0.0006
    CHARGE:  cpu time    0.1560: real time    0.1548
    MIXING:  cpu time    0.0080: real time    0.0096
    --------------------------------------------
      LOOP:  cpu time    7.2720: real time    7.2913

 eigenvalue-minimisations  :  1288
 total energy-change (2. order) :-0.3272479E+01  (-0.5423307E+02)
 number of electron     374.0000748 magnetization      77.2567010
 augmentation part      241.7134799 magnetization      46.6041608

 Broyden mixing:
  rms(total) = 0.25581E+01    rms(broyden)= 0.25569E+01
  rms(prec ) = 0.25959E+01
  weight for this iteration     100.00

 eigenvalues of (default mixing * dielectric matrix)
  average eigenvalue GAMMA=   0.8786
  1.0729  0.6842

 Free energy of the ion-electron system (eV)
  ---------------------------------------------------
  alpha Z        PSCENC =        78.76087424
  Ewald energy   TEWEN  =    106388.43158688
  -Hartree energ DENC   =   -149419.44844956
  -exchange      EXHF   =         0.00000000
  -V(xc)+E(xc)   XCENC  =      1708.56862349
  PAW double counting   =     43152.39869567   -46861.53468865
  entropy T*S    EENTRO =         0.00000000
  eigenvalues    EBANDS =     -2175.37961273
  atomic energy  EATOM  =     47291.80987837
  Solvation  Ediel_sol  =         0.00000000
  ---------------------------------------------------
  free energy    TOTEN  =       163.60690770 eV

  energy without entropy =      163.60690770  energy(sigma->0) =      163.60690770


--------------------------------------------------------------------------------------------------------




--------------------------------------- Iteration      1(   8)  ---------------------------------------


    POTLOK:  cpu time    0.3320: real time    0.3424
    SETDIJ:  cpu time    0.0080: real time    0.0074
     EDDAV:  cpu time    7.0680: real time    7.0679
       DOS:  cpu time    0.0000: real time    0.0008
    CHARGE:  cpu time    0.1520: real time    0.1514
    MIXING:  cpu time    0.0080: real time    0.0099
    --------------------------------------------
      LOOP:  cpu time    7.5680: real time    7.5798

 eigenvalue-minimisations  :  1360
 total energy-change (2. order) : 0.1284545E+02  (-0.8555637E+01)
 number of electron     374.0000703 magnetization      72.7898995
 augmentation part      238.8293887 magnetization      40.1542503

 Broyden mixing:
  rms(total) = 0.23661E+01    rms(broyden)= 0.23654E+01
  rms(prec ) = 0.24468E+01
  weight for this iteration     100.00

 eigenvalues of (default mixing * dielectric matrix)
  average eigenvalue GAMMA=   0.7813
  1.1090  0.6981  0.5368

 Free energy of the ion-electron system (eV)
  ---------------------------------------------------
  alpha Z        PSCENC =        78.76087424
  Ewald energy   TEWEN  =    106388.43158688
  -Hartree energ DENC   =   -149556.77398296
  -exchange      EXHF   =         0.00000000
  -V(xc)+E(xc)   XCENC  =      1720.47119566
  PAW double counting   =     43882.67164066   -47608.74795748
  entropy T*S    EENTRO =         0.00000000
  eigenvalues    EBANDS =     -2020.17087829
  atomic energy  EATOM  =     47291.80987837
  Solvation  Ediel_sol  =         0.00000000
  ---------------------------------------------------
  free energy    TOTEN  =       176.45235707 eV

  energy without entropy =      176.45235707  energy(sigma->0) =      176.45235707


--------------------------------------------------------------------------------------------------------




--------------------------------------- Iteration      1(   9)  ---------------------------------------


    POTLOK:  cpu time    0.3320: real time    0.3457
    SETDIJ:  cpu time    0.0080: real time    0.0074
     EDDAV:  cpu time    7.1480: real time    7.1481
       DOS:  cpu time    0.0000: real time    0.0008
    CHARGE:  cpu time    0.1560: real time    0.1547
    MIXING:  cpu time    0.0080: real time    0.0102
    --------------------------------------------
      LOOP:  cpu time    7.6560: real time    7.6668

 eigenvalue-minimisations  :  1384
 total energy-change (2. order) :-0.1559452E+02  (-0.2636767E+01)
 number of electron     374.0000733 magnetization      60.9492097
 augmentation part      239.8586438 magnetization      30.3922937

 Broyden mixing:
  rms(total) = 0.16836E+01    rms(broyden)= 0.16830E+01
  rms(prec ) = 0.17079E+01
  weight for this iteration     100.00

 eigenvalues of (default mixing * dielectric matrix)
  average eigenvalue GAMMA=   0.9192
  1.4288  1.0698  0.7606  0.4177

 Free energy of the ion-electron system (eV)
  ---------------------------------------------------
  alpha Z        PSCENC =        78.76087424
  Ewald energy   TEWEN  =    106388.43158688
  -Hartree energ DENC   =   -149505.03093643
  -exchange      EXHF   =         0.00000000
  -V(xc)+E(xc)   XCENC  =      1705.61606231
  PAW double counting   =     44046.37030859   -47754.84781801
  entropy T*S    EENTRO =         0.00000000
  eigenvalues    EBANDS =     -2090.25211947
  atomic energy  EATOM  =     47291.80987837
  Solvation  Ediel_sol  =         0.00000000
  ---------------------------------------------------
  free energy    TOTEN  =       160.85783647 eV

  energy without entropy =      160.85783647  energy(sigma->0) =      160.85783647


--------------------------------------------------------------------------------------------------------




--------------------------------------- Iteration      1(  10)  ---------------------------------------


    POTLOK:  cpu time    0.3320: real time    0.3402
    SETDIJ:  cpu time    0.0080: real time    0.0077
     EDDAV:  cpu time    8.7800: real time    8.7788
       DOS:  cpu time    0.0000: real time    0.0008
    CHARGE:  cpu time    0.1520: real time    0.1545
    MIXING:  cpu time    0.0120: real time    0.0108
    --------------------------------------------
      LOOP:  cpu time    9.2800: real time    9.2928

 eigenvalue-minimisations  :  1784
 total energy-change (2. order) :-0.6153173E+02  (-0.2961282E+01)
 number of electron     374.0000731 magnetization      50.2415180
 augmentation part      241.0307708 magnetization      22.9553487

 Broyden mixing:
  rms(total) = 0.13901E+01    rms(broyden)= 0.13894E+01
  rms(prec ) = 0.14288E+01
  weight for this iteration     100.00

 eigenvalues of (default mixing * dielectric matrix)
  average eigenvalue GAMMA=   1.0491
  2.4218  1.1743  0.6943  0.5231  0.4320

 Free energy of the ion-electron system (eV)
  ---------------------------------------------------
  alpha Z        PSCENC =        78.76087424
  Ewald energy   TEWEN  =    106388.43158688
  -Hartree energ DENC   =   -149499.01250573
  -exchange      EXHF   =         0.00000000
  -V(xc)+E(xc)   XCENC  =      1655.03227168
  PAW double counting   =     44378.58679205   -48050.10754449
  entropy T*S    EENTRO =         0.00000000
  eigenvalues    EBANDS =     -2144.17524429
  atomic energy  EATOM  =     47291.80987837
  Solvation  Ediel_sol  =         0.00000000
  ---------------------------------------------------
  free energy    TOTEN  =        99.32610869 eV

  energy without entropy =       99.32610869  energy(sigma->0) =       99.32610869


--------------------------------------------------------------------------------------------------------




--------------------------------------- Iteration      1(  11)  ---------------------------------------


    POTLOK:  cpu time    0.3320: real time    0.3395
    SETDIJ:  cpu time    0.0080: real time    0.0077
     EDDAV:  cpu time    7.2480: real time    7.2474
       DOS:  cpu time    0.0000: real time    0.0007
    CHARGE:  cpu time    0.1560: real time    0.1551
    MIXING:  cpu time    0.0080: real time    0.0110
    --------------------------------------------
      LOOP:  cpu time    7.7520: real time    7.7614

 eigenvalue-minimisations  :  1408
 total energy-change (2. order) :-0.3469321E+02  (-0.2743827E+01)
 number of electron     374.0000731 magnetization      44.3186587
 augmentation part      241.7930917 magnetization      20.6407960

 Broyden mixing:
  rms(total) = 0.10278E+01    rms(broyden)= 0.10272E+01
  rms(prec ) = 0.10513E+01
  weight for this iteration     100.00

 eigenvalues of (default mixing * dielectric matrix)
  average eigenvalue GAMMA=   1.0528
  2.8718  1.2463  0.6512  0.6512  0.4897  0.4064

 Free energy of the ion-electron system (eV)
  ---------------------------------------------------
  alpha Z        PSCENC =        78.76087424
  Ewald energy   TEWEN  =    106388.43158688
  -Hartree energ DENC   =   -149498.32723333
  -exchange      EXHF   =         0.00000000
  -V(xc)+E(xc)   XCENC  =      1628.86772774
  PAW double counting   =     44564.91595151   -48215.90445894
  entropy T*S    EENTRO =         0.00000000
  eigenvalues    EBANDS =     -2173.92142796
  atomic energy  EATOM  =     47291.80987837
  Solvation  Ediel_sol  =         0.00000000
  ---------------------------------------------------
  free energy    TOTEN  =        64.63289851 eV

  energy without entropy =       64.63289851  energy(sigma->0) =       64.63289851


--------------------------------------------------------------------------------------------------------




--------------------------------------- Iteration      1(  12)  ---------------------------------------


    POTLOK:  cpu time    0.3320: real time    0.3390
    SETDIJ:  cpu time    0.0080: real time    0.0076
     EDDAV:  cpu time    7.1880: real time    7.1902
       DOS:  cpu time    0.0000: real time    0.0007
    CHARGE:  cpu time    0.1560: real time    0.1551
    MIXING:  cpu time    0.0120: real time    0.0115
    --------------------------------------------
      LOOP:  cpu time    7.6960: real time    7.7042

 eigenvalue-minimisations  :  1392
 total energy-change (2. order) :-0.1898123E+02  (-0.1626424E+01)
 number of electron     374.0000738 magnetization      34.9875362
 augmentation part      241.1062549 magnetization      14.4640342

 Broyden mixing:
  rms(total) = 0.82746E+00    rms(broyden)= 0.82707E+00
  rms(prec ) = 0.84278E+00
  weight for this iteration     100.00

 eigenvalues of (default mixing * dielectric matrix)
  average eigenvalue GAMMA=   1.1431
  3.5529  1.3834  0.8016  0.8016  0.6356  0.4134  0.4134

 Free energy of the ion-electron system (eV)
  ---------------------------------------------------
  alpha Z        PSCENC =        78.76087424
  Ewald energy   TEWEN  =    106388.43158688
  -Hartree energ DENC   =   -149534.71821125
  -exchange      EXHF   =         0.00000000
  -V(xc)+E(xc)   XCENC  =      1616.39758027
  PAW double counting   =     44569.45415974   -48224.01293946
  entropy T*S    EENTRO =         0.00000000
  eigenvalues    EBANDS =     -2140.47125763
  atomic energy  EATOM  =     47291.80987837
  Solvation  Ediel_sol  =         0.00000000
  ---------------------------------------------------
  free energy    TOTEN  =        45.65167116 eV

  energy without entropy =       45.65167116  energy(sigma->0) =       45.65167116


--------------------------------------------------------------------------------------------------------




--------------------------------------- Iteration      1(  13)  ---------------------------------------


    POTLOK:  cpu time    0.3360: real time    0.3393
    SETDIJ:  cpu time    0.0080: real time    0.0078
     EDDAV:  cpu time    7.1240: real time    7.1258
       DOS:  cpu time    0.0040: real time    0.0008
    CHARGE:  cpu time    0.1520: real time    0.1535
    MIXING:  cpu time    0.0120: real time    0.0124
    --------------------------------------------
      LOOP:  cpu time    7.6360: real time    7.6394

 eigenvalue-minimisations  :  1376
 total energy-change (2. order) :-0.3811908E+02  (-0.2584896E+01)
 number of electron     374.0000716 magnetization      24.5268465
 augmentation part      239.6920133 magnetization       7.5561659

 Broyden mixing:
  rms(total) = 0.64673E+00    rms(broyden)= 0.64613E+00
  rms(prec ) = 0.66472E+00
  weight for this iteration     100.00

 eigenvalues of (default mixing * dielectric matrix)
  average eigenvalue GAMMA=   1.2653
  4.6935  1.7129  0.9700  0.7235  0.7235  0.4570  0.4570  0.3851

 Free energy of the ion-electron system (eV)
  ---------------------------------------------------
  alpha Z        PSCENC =        78.76087424
  Ewald energy   TEWEN  =    106388.43158688
  -Hartree energ DENC   =   -149580.67489258
  -exchange      EXHF   =         0.00000000
  -V(xc)+E(xc)   XCENC  =      1589.67280014
  PAW double counting   =     44527.23473068   -48187.65537731
  entropy T*S    EENTRO =         0.00000000
  eigenvalues    EBANDS =     -2100.04701267
  atomic energy  EATOM  =     47291.80987837
  Solvation  Ediel_sol  =         0.00000000
  ---------------------------------------------------
  free energy    TOTEN  =         7.53258774 eV

  energy without entropy =        7.53258774  energy(sigma->0) =        7.53258774


--------------------------------------------------------------------------------------------------------




--------------------------------------- Iteration      1(  14)  ---------------------------------------


    POTLOK:  cpu time    0.3320: real time    0.3419
    SETDIJ:  cpu time    0.0080: real time    0.0073
     EDDAV:  cpu time    7.5360: real time    7.5356
       DOS:  cpu time    0.0000: real time    0.0007
    CHARGE:  cpu time    0.1560: real time    0.1559
    MIXING:  cpu time    0.0120: real time    0.0125
    --------------------------------------------
      LOOP:  cpu time    8.0440: real time    8.0538

 eigenvalue-minimisations  :  1480
 total energy-change (2. order) :-0.4403154E+02  (-0.3708068E+01)
 number of electron     374.0000732 magnetization      19.5353046
 augmentation part      238.7270805 magnetization       8.1222920

 Broyden mixing:
  rms(total) = 0.56255E+00    rms(broyden)= 0.56139E+00
  rms(prec ) = 0.58088E+00
  weight for this iteration     100.00

 eigenvalues of (default mixing * dielectric matrix)
  average eigenvalue GAMMA=   1.2988
  5.4554  1.9646  1.0529  0.6978  0.6978  0.5171  0.5171  0.3932  0.3932

 Free energy of the ion-electron system (eV)
  ---------------------------------------------------
  alpha Z        PSCENC =        78.76087424
  Ewald energy   TEWEN  =    106388.43158688
  -Hartree energ DENC   =   -149594.53537042
  -exchange      EXHF   =         0.00000000
  -V(xc)+E(xc)   XCENC  =      1557.43664193
  PAW double counting   =     44405.93258208   -48066.10234494
  entropy T*S    EENTRO =        -0.00000000
  eigenvalues    EBANDS =     -2098.23279855
  atomic energy  EATOM  =     47291.80987837
  Solvation  Ediel_sol  =         0.00000000
  ---------------------------------------------------
  free energy    TOTEN  =       -36.49895040 eV

  energy without entropy =      -36.49895040  energy(sigma->0) =      -36.49895040


--------------------------------------------------------------------------------------------------------




--------------------------------------- Iteration      1(  15)  ---------------------------------------


    POTLOK:  cpu time    0.3320: real time    0.3449
    SETDIJ:  cpu time    0.0080: real time    0.0076
     EDDAV:  cpu time    7.0880: real time    7.0881
       DOS:  cpu time    0.0000: real time    0.0006
    CHARGE:  cpu time    0.1560: real time    0.1555
    MIXING:  cpu time    0.0120: real time    0.0131
    --------------------------------------------
      LOOP:  cpu time    7.5960: real time    7.6100

 eigenvalue-minimisations  :  1368
 total energy-change (2. order) :-0.1738400E+02  (-0.1629954E+01)
 number of electron     374.0000714 magnetization      15.7158212
 augmentation part      238.5129874 magnetization       7.4658435

 Broyden mixing:
  rms(total) = 0.46674E+00    rms(broyden)= 0.46607E+00
  rms(prec ) = 0.49181E+00
  weight for this iteration     100.00

 eigenvalues of (default mixing * dielectric matrix)
  average eigenvalue GAMMA=   1.3150
  6.0469  2.2212  0.9951  0.7205  0.7205  0.6253  0.6253  0.4146  0.4146  0.3663

 Free energy of the ion-electron system (eV)
  ---------------------------------------------------
  alpha Z        PSCENC =        78.76087424
  Ewald energy   TEWEN  =    106388.43158688
  -Hartree energ DENC   =   -149581.36835960
  -exchange      EXHF   =         0.00000000
  -V(xc)+E(xc)   XCENC  =      1545.05868391
  PAW double counting   =     44331.56671170   -47986.99316160
  entropy T*S    EENTRO =         0.00000000
  eigenvalues    EBANDS =     -2121.14916754
  atomic energy  EATOM  =     47291.80987837
  Solvation  Ediel_sol  =         0.00000000
  ---------------------------------------------------
  free energy    TOTEN  =       -53.88295364 eV

  energy without entropy =      -53.88295364  energy(sigma->0) =      -53.88295364


--------------------------------------------------------------------------------------------------------




--------------------------------------- Iteration      1(  16)  ---------------------------------------


    POTLOK:  cpu time    0.3440: real time    0.3421
    SETDIJ:  cpu time    0.0040: real time    0.0075
     EDDAV:  cpu time    7.7400: real time    7.7380
       DOS:  cpu time    0.0000: real time    0.0008
    CHARGE:  cpu time    0.1520: real time    0.1543
    MIXING:  cpu time    0.0160: real time    0.0135
    --------------------------------------------
      LOOP:  cpu time    8.2560: real time    8.2561

 eigenvalue-minimisations  :  1528
 total energy-change (2. order) :-0.1242537E+02  (-0.8316437E+00)
 number of electron     374.0000724 magnetization      12.3912690
 augmentation part      239.0165591 magnetization       6.9503169

 Broyden mixing:
  rms(total) = 0.37652E+00    rms(broyden)= 0.37574E+00
  rms(prec ) = 0.39180E+00
  weight for this iteration     100.00

 eigenvalues of (default mixing * dielectric matrix)
  average eigenvalue GAMMA=   1.3285
  6.6207  2.3608  0.9757  0.8261  0.8261  0.7027  0.7027  0.4346  0.4346  0.3825
  0.3465

 Free energy of the ion-electron system (eV)
  ---------------------------------------------------
  alpha Z        PSCENC =        78.76087424
  Ewald energy   TEWEN  =    106388.43158688
  -Hartree energ DENC   =   -149546.63536541
  -exchange      EXHF   =         0.00000000
  -V(xc)+E(xc)   XCENC  =      1534.92988185
  PAW double counting   =     44233.20405302   -47881.19144451
  entropy T*S    EENTRO =         0.00000000
  eigenvalues    EBANDS =     -2165.61778691
  atomic energy  EATOM  =     47291.80987837
  Solvation  Ediel_sol  =         0.00000000
  ---------------------------------------------------
  free energy    TOTEN  =       -66.30832246 eV

  energy without entropy =      -66.30832246  energy(sigma->0) =      -66.30832246


--------------------------------------------------------------------------------------------------------




--------------------------------------- Iteration      1(  17)  ---------------------------------------


    POTLOK:  cpu time    0.3320: real time    0.3415
    SETDIJ:  cpu time    0.0080: real time    0.0074
     EDDAV:  cpu time    7.2880: real time    7.2916
       DOS:  cpu time    0.0040: real time    0.0007
    CHARGE:  cpu time    0.1520: real time    0.1555
    MIXING:  cpu time    0.0160: real time    0.0142
    --------------------------------------------
      LOOP:  cpu time    7.8000: real time    7.8108

 eigenvalue-minimisations  :  1416
 total energy-change (2. order) :-0.8455875E+01  (-0.4744577E+00)
 number of electron     374.0000727 magnetization       9.3385513
 augmentation part      239.2967677 magnetization       6.3830123

 Broyden mixing:
  rms(total) = 0.31112E+00    rms(broyden)= 0.31042E+00
  rms(prec ) = 0.32561E+00
  weight for this iteration     100.00

 eigenvalues of (default mixing * dielectric matrix)
  average eigenvalue GAMMA=   1.3452
  7.2889  2.4285  0.9493  0.9493  1.0422  0.6916  0.6916  0.4866  0.4866  0.3928
  0.3928  0.3416

 Free energy of the ion-electron system (eV)
  ---------------------------------------------------
  alpha Z        PSCENC =        78.76087424
  Ewald energy   TEWEN  =    106388.43158688
  -Hartree energ DENC   =   -149527.41429345
  -exchange      EXHF   =         0.00000000
  -V(xc)+E(xc)   XCENC  =      1527.99721079
  PAW double counting   =     44171.05261799   -47816.20423052
  entropy T*S    EENTRO =        -0.00000000
  eigenvalues    EBANDS =     -2189.19784172
  atomic energy  EATOM  =     47291.80987837
  Solvation  Ediel_sol  =         0.00000000
  ---------------------------------------------------
  free energy    TOTEN  =       -74.76419744 eV

  energy without entropy =      -74.76419744  energy(sigma->0) =      -74.76419744


--------------------------------------------------------------------------------------------------------




--------------------------------------- Iteration      1(  18)  ---------------------------------------


    POTLOK:  cpu time    0.3320: real time    0.3397
    SETDIJ:  cpu time    0.0080: real time    0.0073
     EDDAV:  cpu time    7.6400: real time    7.6418
       DOS:  cpu time    0.0000: real time    0.0007
    CHARGE:  cpu time    0.1520: real time    0.1525
    MIXING:  cpu time    0.0160: real time    0.0147
    --------------------------------------------
      LOOP:  cpu time    8.1480: real time    8.1566

 eigenvalue-minimisations  :  1504
 total energy-change (2. order) :-0.5475388E+01  (-0.1995477E+00)
 number of electron     374.0000720 magnetization       6.2602215
 augmentation part      239.4727925 magnetization       5.4376799

 Broyden mixing:
  rms(total) = 0.26457E+00    rms(broyden)= 0.26391E+00
  rms(prec ) = 0.27730E+00
  weight for this iteration     100.00

 eigenvalues of (default mixing * dielectric matrix)
  average eigenvalue GAMMA=   1.3801
  8.2250  2.3739  1.2586  1.0456  1.0456  0.6083  0.6083  0.6098  0.6098  0.4445
  0.3912  0.3912  0.3291

 Free energy of the ion-electron system (eV)
  ---------------------------------------------------
  alpha Z        PSCENC =        78.76087424
  Ewald energy   TEWEN  =    106388.43158688
  -Hartree energ DENC   =   -149515.24971468
  -exchange      EXHF   =         0.00000000
  -V(xc)+E(xc)   XCENC  =      1523.23332648
  PAW double counting   =     44139.34228937   -47784.32936911
  entropy T*S    EENTRO =         0.00000000
  eigenvalues    EBANDS =     -2202.23845651
  atomic energy  EATOM  =     47291.80987837
  Solvation  Ediel_sol  =         0.00000000
  ---------------------------------------------------
  free energy    TOTEN  =       -80.23958496 eV

  energy without entropy =      -80.23958496  energy(sigma->0) =      -80.23958496


--------------------------------------------------------------------------------------------------------




--------------------------------------- Iteration      1(  19)  ---------------------------------------


    POTLOK:  cpu time    0.3320: real time    0.3535
    SETDIJ:  cpu time    0.0080: real time    0.0076
     EDDAV:  cpu time    7.2400: real time    7.2427
       DOS:  cpu time    0.0000: real time    0.0006
    CHARGE:  cpu time    0.1560: real time    0.1553
    MIXING:  cpu time    0.0160: real time    0.0153
    --------------------------------------------
      LOOP:  cpu time    7.7520: real time    7.7751

 eigenvalue-minimisations  :  1408
 total energy-change (2. order) :-0.4085755E+01  (-0.1002018E+00)
 number of electron     374.0000721 magnetization       4.5705104
 augmentation part      239.4550371 magnetization       4.1349284

 Broyden mixing:
  rms(total) = 0.19458E+00    rms(broyden)= 0.19451E+00
  rms(prec ) = 0.20490E+00
  weight for this iteration     100.00

 eigenvalues of (default mixing * dielectric matrix)
  average eigenvalue GAMMA=   1.4081
  8.8177  2.4822  1.2168  1.2168  0.9576  0.9576  0.7417  0.7417  0.5398  0.4576
  0.4394  0.4394  0.3792  0.3257

 Free energy of the ion-electron system (eV)
  ---------------------------------------------------
  alpha Z        PSCENC =        78.76087424
  Ewald energy   TEWEN  =    106388.43158688
  -Hartree energ DENC   =   -149511.35699841
  -exchange      EXHF   =         0.00000000
  -V(xc)+E(xc)   XCENC  =      1519.70328144
  PAW double counting   =     44132.09315335   -47778.71353829
  entropy T*S    EENTRO =         0.00000000
  eigenvalues    EBANDS =     -2205.05357712
  atomic energy  EATOM  =     47291.80987837
  Solvation  Ediel_sol  =         0.00000000
  ---------------------------------------------------
  free energy    TOTEN  =       -84.32533954 eV

  energy without entropy =      -84.32533954  energy(sigma->0) =      -84.32533954


--------------------------------------------------------------------------------------------------------




--------------------------------------- Iteration      1(  20)  ---------------------------------------


    POTLOK:  cpu time    0.3320: real time    0.3431
    SETDIJ:  cpu time    0.0080: real time    0.0074
     EDDAV:  cpu time    6.9520: real time    6.9540
       DOS:  cpu time    0.0000: real time    0.0007
    CHARGE:  cpu time    0.1560: real time    0.1543
    MIXING:  cpu time    0.0160: real time    0.0159
    --------------------------------------------
      LOOP:  cpu time    7.4640: real time    7.4755

 eigenvalue-minimisations  :  1336
 total energy-change (2. order) :-0.4425763E+01  (-0.9176883E-01)
 number of electron     374.0000721 magnetization       3.1800504
 augmentation part      239.4352630 magnetization       2.9844691

 Broyden mixing:
  rms(total) = 0.14565E+00    rms(broyden)= 0.14561E+00
  rms(prec ) = 0.15402E+00
  weight for this iteration     100.00

 eigenvalues of (default mixing * dielectric matrix)
  average eigenvalue GAMMA=   1.4429
  9.3937  2.8350  1.4493  1.4493  0.9496  0.9496  0.7286  0.7286  0.5794  0.5794
  0.4521  0.4521  0.3856  0.3856  0.3249

 Free energy of the ion-electron system (eV)
  ---------------------------------------------------
  alpha Z        PSCENC =        78.76087424
  Ewald energy   TEWEN  =    106388.43158688
  -Hartree energ DENC   =   -149491.96881854
  -exchange      EXHF   =         0.00000000
  -V(xc)+E(xc)   XCENC  =      1515.61898719
  PAW double counting   =     44094.68065203   -47742.61893081
  entropy T*S    EENTRO =         0.00000000
  eigenvalues    EBANDS =     -2223.46533171
  atomic energy  EATOM  =     47291.80987837
  Solvation  Ediel_sol  =         0.00000000
  ---------------------------------------------------
  free energy    TOTEN  =       -88.75110236 eV

  energy without entropy =      -88.75110236  energy(sigma->0) =      -88.75110236


--------------------------------------------------------------------------------------------------------




--------------------------------------- Iteration      1(  21)  ---------------------------------------


    POTLOK:  cpu time    0.3400: real time    0.3413
    SETDIJ:  cpu time    0.0080: real time    0.0077
     EDDAV:  cpu time    7.6960: real time    7.6972
       DOS:  cpu time    0.0000: real time    0.0007
    CHARGE:  cpu time    0.1520: real time    0.1530
    MIXING:  cpu time    0.0200: real time    0.0166
    --------------------------------------------
      LOOP:  cpu time    8.2160: real time    8.2166

 eigenvalue-minimisations  :  1520
 total energy-change (2. order) :-0.3535122E+01  (-0.5227296E-01)
 number of electron     374.0000723 magnetization       2.0714048
 augmentation part      239.5649725 magnetization       2.0379917

 Broyden mixing:
  rms(total) = 0.93298E-01    rms(broyden)= 0.93264E-01
  rms(prec ) = 0.98557E-01
  weight for this iteration     100.00

 eigenvalues of (default mixing * dielectric matrix)
  average eigenvalue GAMMA=   1.4603
  9.7721  3.1520  1.4615  1.1766  1.1766  1.0145  1.0145  0.7214  0.7214  0.6995
  0.4598  0.4598  0.4280  0.3915  0.3915  0.3243

 Free energy of the ion-electron system (eV)
  ---------------------------------------------------
  alpha Z        PSCENC =        78.76087424
  Ewald energy   TEWEN  =    106388.43158688
  -Hartree energ DENC   =   -149465.04556171
  -exchange      EXHF   =         0.00000000
  -V(xc)+E(xc)   XCENC  =      1511.97134431
  PAW double counting   =     44048.66154401   -47696.39930006
  entropy T*S    EENTRO =         0.00000000
  eigenvalues    EBANDS =     -2250.47659019
  atomic energy  EATOM  =     47291.80987837
  Solvation  Ediel_sol  =         0.00000000
  ---------------------------------------------------
  free energy    TOTEN  =       -92.28622416 eV

  energy without entropy =      -92.28622416  energy(sigma->0) =      -92.28622416


--------------------------------------------------------------------------------------------------------




--------------------------------------- Iteration      1(  22)  ---------------------------------------


    POTLOK:  cpu time    0.3320: real time    0.3409
    SETDIJ:  cpu time    0.0080: real time    0.0075
     EDDAV:  cpu time    6.8640: real time    6.8652
       DOS:  cpu time    0.0000: real time    0.0008
    CHARGE:  cpu time    0.1560: real time    0.1555
    MIXING:  cpu time    0.0160: real time    0.0175
    --------------------------------------------
      LOOP:  cpu time    7.3760: real time    7.3873

 eigenvalue-minimisations  :  1312
 total energy-change (2. order) :-0.2087765E+01  (-0.2231445E-01)
 number of electron     374.0000723 magnetization       1.3485626
 augmentation part      239.5670349 magnetization       1.3345807

 Broyden mixing:
  rms(total) = 0.64817E-01    rms(broyden)= 0.64802E-01
  rms(prec ) = 0.69720E-01
  weight for this iteration     100.00

 eigenvalues of (default mixing * dielectric matrix)
  average eigenvalue GAMMA=   1.5047
 10.1625  3.5382  1.7825  1.5013  1.5013  0.9217  0.9217  0.7714  0.7111  0.7111
  0.6229  0.4521  0.4521  0.4244  0.3906  0.3906  0.3240

 Free energy of the ion-electron system (eV)
  ---------------------------------------------------
  alpha Z        PSCENC =        78.76087424
  Ewald energy   TEWEN  =    106388.43158688
  -Hartree energ DENC   =   -149451.81079982
  -exchange      EXHF   =         0.00000000
  -V(xc)+E(xc)   XCENC  =      1509.86930334
  PAW double counting   =     44051.15826492   -47699.99082587
  entropy T*S    EENTRO =         0.00000000
  eigenvalues    EBANDS =     -2262.60227156
  atomic energy  EATOM  =     47291.80987837
  Solvation  Ediel_sol  =         0.00000000
  ---------------------------------------------------
  free energy    TOTEN  =       -94.37398950 eV

  energy without entropy =      -94.37398950  energy(sigma->0) =      -94.37398950


--------------------------------------------------------------------------------------------------------




--------------------------------------- Iteration      1(  23)  ---------------------------------------


    POTLOK:  cpu time    0.3320: real time    0.3438
    SETDIJ:  cpu time    0.0080: real time    0.0074
     EDDAV:  cpu time    6.9440: real time    6.9448
       DOS:  cpu time    0.0000: real time    0.0006
    CHARGE:  cpu time    0.1520: real time    0.1527
    MIXING:  cpu time    0.0200: real time    0.0180
    --------------------------------------------
      LOOP:  cpu time    7.4560: real time    7.4673

 eigenvalue-minimisations  :  1336
 total energy-change (2. order) :-0.1404514E+01  (-0.1012372E-01)
 number of electron     374.0000722 magnetization       0.9287544
 augmentation part      239.5396007 magnetization       0.9091508

 Broyden mixing:
  rms(total) = 0.41466E-01    rms(broyden)= 0.41451E-01
  rms(prec ) = 0.46014E-01
  weight for this iteration     100.00

 eigenvalues of (default mixing * dielectric matrix)
  average eigenvalue GAMMA=   1.5148
 10.4802  3.9558  1.9103  1.4714  1.4714  0.9581  0.9581  0.9850  0.7057  0.7057
  0.6292  0.6292  0.4476  0.4476  0.3992  0.3992  0.3891  0.3244

 Free energy of the ion-electron system (eV)
  ---------------------------------------------------
  alpha Z        PSCENC =        78.76087424
  Ewald energy   TEWEN  =    106388.43158688
  -Hartree energ DENC   =   -149438.58733390
  -exchange      EXHF   =         0.00000000
  -V(xc)+E(xc)   XCENC  =      1508.45963123
  PAW double counting   =     44055.77670134   -47705.54880972
  entropy T*S    EENTRO =         0.00000000
  eigenvalues    EBANDS =     -2274.88103187
  atomic energy  EATOM  =     47291.80987837
  Solvation  Ediel_sol  =         0.00000000
  ---------------------------------------------------
  free energy    TOTEN  =       -95.77850343 eV

  energy without entropy =      -95.77850343  energy(sigma->0) =      -95.77850343


--------------------------------------------------------------------------------------------------------




--------------------------------------- Iteration      1(  24)  ---------------------------------------


    POTLOK:  cpu time    0.3320: real time    0.3424
    SETDIJ:  cpu time    0.0080: real time    0.0078
     EDDAV:  cpu time    6.9160: real time    6.9176
       DOS:  cpu time    0.0000: real time    0.0006
    CHARGE:  cpu time    0.1520: real time    0.1523
    MIXING:  cpu time    0.0200: real time    0.0187
    --------------------------------------------
      LOOP:  cpu time    7.4280: real time    7.4394

 eigenvalue-minimisations  :  1328
 total energy-change (2. order) :-0.7439325E+00  (-0.3463098E-02)
 number of electron     374.0000722 magnetization       0.5486834
 augmentation part      239.5224588 magnetization       0.5349282

 Broyden mixing:
  rms(total) = 0.24311E-01    rms(broyden)= 0.24302E-01
  rms(prec ) = 0.28146E-01
  weight for this iteration     100.00

 eigenvalues of (default mixing * dielectric matrix)
  average eigenvalue GAMMA=   1.5407
 10.7662  4.3809  2.2890  1.4345  1.4345  1.3323  0.9366  0.9366  0.7889  0.7075
  0.7075  0.6704  0.4534  0.4534  0.4563  0.4150  0.3934  0.3934  0.3243

 Free energy of the ion-electron system (eV)
  ---------------------------------------------------
  alpha Z        PSCENC =        78.76087424
  Ewald energy   TEWEN  =    106388.43158688
  -Hartree energ DENC   =   -149427.40099126
  -exchange      EXHF   =         0.00000000
  -V(xc)+E(xc)   XCENC  =      1507.69198678
  PAW double counting   =     44055.08698322   -47705.29056450
  entropy T*S    EENTRO =         0.00000000
  eigenvalues    EBANDS =     -2285.61218961
  atomic energy  EATOM  =     47291.80987837
  Solvation  Ediel_sol  =         0.00000000
  ---------------------------------------------------
  free energy    TOTEN  =       -96.52243589 eV

  energy without entropy =      -96.52243589  energy(sigma->0) =      -96.52243589


--------------------------------------------------------------------------------------------------------




--------------------------------------- Iteration      1(  25)  ---------------------------------------


    POTLOK:  cpu time    0.3400: real time    0.3452
    SETDIJ:  cpu time    0.0080: real time    0.0073
     EDDAV:  cpu time    7.5400: real time    7.5386
       DOS:  cpu time    0.0000: real time    0.0007
    CHARGE:  cpu time    0.1520: real time    0.1526
    MIXING:  cpu time    0.0200: real time    0.0197
    --------------------------------------------
      LOOP:  cpu time    8.0600: real time    8.0640

 eigenvalue-minimisations  :  1480
 total energy-change (2. order) :-0.4685361E+00  (-0.1104256E-02)
 number of electron     374.0000722 magnetization       0.2940495
 augmentation part      239.5190780 magnetization       0.2895034

 Broyden mixing:
  rms(total) = 0.14720E-01    rms(broyden)= 0.14711E-01
  rms(prec ) = 0.17812E-01
  weight for this iteration     100.00

 eigenvalues of (default mixing * dielectric matrix)
  average eigenvalue GAMMA=   1.5413
 10.9374  4.5588  2.4939  1.5454  1.5454  1.2098  0.9355  0.9355  1.0536  0.7034
  0.7034  0.7177  0.6086  0.3242  0.4493  0.4493  0.4662  0.3970  0.3970  0.3947

 Free energy of the ion-electron system (eV)
  ---------------------------------------------------
  alpha Z        PSCENC =        78.76087424
  Ewald energy   TEWEN  =    106388.43158688
  -Hartree energ DENC   =   -149417.86805752
  -exchange      EXHF   =         0.00000000
  -V(xc)+E(xc)   XCENC  =      1507.18757661
  PAW double counting   =     44058.15835792   -47708.53188463
  entropy T*S    EENTRO =         0.00000000
  eigenvalues    EBANDS =     -2294.93930387
  atomic energy  EATOM  =     47291.80987837
  Solvation  Ediel_sol  =         0.00000000
  ---------------------------------------------------
  free energy    TOTEN  =       -96.99097199 eV

  energy without entropy =      -96.99097199  energy(sigma->0) =      -96.99097199


--------------------------------------------------------------------------------------------------------




--------------------------------------- Iteration      1(  26)  ---------------------------------------


    POTLOK:  cpu time    0.3320: real time    0.3432
    SETDIJ:  cpu time    0.0080: real time    0.0076
     EDDAV:  cpu time    6.7560: real time    6.7548
       DOS:  cpu time    0.0000: real time    0.0007
    CHARGE:  cpu time    0.1520: real time    0.1531
    MIXING:  cpu time    0.0200: real time    0.0207
    --------------------------------------------
      LOOP:  cpu time    7.2680: real time    7.2801

 eigenvalue-minimisations  :  1284
 total energy-change (2. order) :-0.2136850E+00  (-0.4706250E-03)
 number of electron     374.0000722 magnetization       0.2659790
 augmentation part      239.5249871 magnetization       0.2698901

 Broyden mixing:
  rms(total) = 0.11186E-01    rms(broyden)= 0.11183E-01
  rms(prec ) = 0.13466E-01
  weight for this iteration     100.00

 eigenvalues of (default mixing * dielectric matrix)
  average eigenvalue GAMMA=   1.5178
 10.9128  4.6678  2.6330  1.5266  1.5266  1.2108  1.2108  0.9461  0.9461  0.8535
  0.7046  0.7046  0.6305  0.5597  0.3242  0.4489  0.4489  0.3915  0.3915  0.4177
  0.4177

 Free energy of the ion-electron system (eV)
  ---------------------------------------------------
  alpha Z        PSCENC =        78.76087424
  Ewald energy   TEWEN  =    106388.43158688
  -Hartree energ DENC   =   -149412.10862758
  -exchange      EXHF   =         0.00000000
  -V(xc)+E(xc)   XCENC  =      1506.93066407
  PAW double counting   =     44062.75755334   -47713.03324571
  entropy T*S    EENTRO =         0.00000000
  eigenvalues    EBANDS =     -2300.75334057
  atomic energy  EATOM  =     47291.80987837
  Solvation  Ediel_sol  =         0.00000000
  ---------------------------------------------------
  free energy    TOTEN  =       -97.20465698 eV

  energy without entropy =      -97.20465698  energy(sigma->0) =      -97.20465698


--------------------------------------------------------------------------------------------------------




--------------------------------------- Iteration      1(  27)  ---------------------------------------


    POTLOK:  cpu time    0.3320: real time    0.3401
    SETDIJ:  cpu time    0.0080: real time    0.0073
     EDDAV:  cpu time    6.8080: real time    6.8080
       DOS:  cpu time    0.0000: real time    0.0008
    CHARGE:  cpu time    0.1520: real time    0.1518
    MIXING:  cpu time    0.0200: real time    0.0214
    --------------------------------------------
      LOOP:  cpu time    7.3200: real time    7.3294

 eigenvalue-minimisations  :  1296
 total energy-change (2. order) :-0.9451712E-01  (-0.2292210E-03)
 number of electron     374.0000723 magnetization       0.2342973
 augmentation part      239.5321341 magnetization       0.2328827

 Broyden mixing:
  rms(total) = 0.64597E-02    rms(broyden)= 0.64573E-02
  rms(prec ) = 0.84494E-02
  weight for this iteration     100.00

 eigenvalues of (default mixing * dielectric matrix)
  average eigenvalue GAMMA=   1.5238
 10.9160  4.8655  2.6541  2.2290  1.3592  1.3592  1.0974  1.0974  0.9409  0.9409
  0.7031  0.7031  0.6752  0.6412  0.3242  0.5019  0.4489  0.4489  0.3962  0.3962
  0.3989  0.4271

 Free energy of the ion-electron system (eV)
  ---------------------------------------------------
  alpha Z        PSCENC =        78.76087424
  Ewald energy   TEWEN  =    106388.43158688
  -Hartree energ DENC   =   -149408.40891598
  -exchange      EXHF   =         0.00000000
  -V(xc)+E(xc)   XCENC  =      1506.80803542
  PAW double counting   =     44066.09948272   -47716.23326500
  entropy T*S    EENTRO =         0.00000000
  eigenvalues    EBANDS =     -2304.56685075
  atomic energy  EATOM  =     47291.80987837
  Solvation  Ediel_sol  =         0.00000000
  ---------------------------------------------------
  free energy    TOTEN  =       -97.29917410 eV

  energy without entropy =      -97.29917410  energy(sigma->0) =      -97.29917410


--------------------------------------------------------------------------------------------------------




--------------------------------------- Iteration      1(  28)  ---------------------------------------


    POTLOK:  cpu time    0.3360: real time    0.3447
    SETDIJ:  cpu time    0.0080: real time    0.0076
     EDDAV:  cpu time    7.6400: real time    7.6430
       DOS:  cpu time    0.0000: real time    0.0007
    CHARGE:  cpu time    0.1560: real time    0.1527
    MIXING:  cpu time    0.0200: real time    0.0226
    --------------------------------------------
      LOOP:  cpu time    8.1600: real time    8.1713

 eigenvalue-minimisations  :  1504
 total energy-change (2. order) :-0.5703648E-01  (-0.1335834E-03)
 number of electron     374.0000722 magnetization       0.1935723
 augmentation part      239.5420504 magnetization       0.1910388

 Broyden mixing:
  rms(total) = 0.50800E-02    rms(broyden)= 0.50788E-02
  rms(prec ) = 0.65451E-02
  weight for this iteration     100.00

 eigenvalues of (default mixing * dielectric matrix)
  average eigenvalue GAMMA=   1.5181
 10.9086  4.9989  2.7966  2.3172  1.3096  1.3096  1.3223  1.3223  0.9362  0.9362
  0.7060  0.7060  0.7115  0.7115  0.6155  0.3242  0.4521  0.4521  0.4467  0.4467
  0.3954  0.3954  0.3952

 Free energy of the ion-electron system (eV)
  ---------------------------------------------------
  alpha Z        PSCENC =        78.76087424
  Ewald energy   TEWEN  =    106388.43158688
  -Hartree energ DENC   =   -149404.48457037
  -exchange      EXHF   =         0.00000000
  -V(xc)+E(xc)   XCENC  =      1506.72286485
  PAW double counting   =     44067.51727068   -47717.50905096
  entropy T*S    EENTRO =         0.00000000
  eigenvalues    EBANDS =     -2308.60506426
  atomic energy  EATOM  =     47291.80987837
  Solvation  Ediel_sol  =         0.00000000
  ---------------------------------------------------
  free energy    TOTEN  =       -97.35621058 eV

  energy without entropy =      -97.35621058  energy(sigma->0) =      -97.35621058


--------------------------------------------------------------------------------------------------------




--------------------------------------- Iteration      1(  29)  ---------------------------------------


    POTLOK:  cpu time    0.3400: real time    0.3436
    SETDIJ:  cpu time    0.0080: real time    0.0074
     EDDAV:  cpu time    7.4160: real time    7.4180
       DOS:  cpu time    0.0000: real time    0.0008
    CHARGE:  cpu time    0.1520: real time    0.1524
    MIXING:  cpu time    0.0240: real time    0.0240
    --------------------------------------------
      LOOP:  cpu time    7.9400: real time    7.9462

 eigenvalue-minimisations  :  1448
 total energy-change (2. order) :-0.2340265E-01  (-0.5766548E-04)
 number of electron     374.0000723 magnetization       0.1293853
 augmentation part      239.5418309 magnetization       0.1257715

 Broyden mixing:
  rms(total) = 0.42846E-02    rms(broyden)= 0.42840E-02
  rms(prec ) = 0.53711E-02
  weight for this iteration     100.00

 eigenvalues of (default mixing * dielectric matrix)
  average eigenvalue GAMMA=   1.5127
 10.9213  5.0552  3.1120  2.2010  1.7227  1.3687  1.3687  0.9447  0.9447  1.0294
  1.0294  0.7002  0.7002  0.7106  0.6403  0.5667  0.3242  0.4499  0.4499  0.4547
  0.3952  0.3952  0.4231  0.3965

 Free energy of the ion-electron system (eV)
  ---------------------------------------------------
  alpha Z        PSCENC =        78.76087424
  Ewald energy   TEWEN  =    106388.43158688
  -Hartree energ DENC   =   -149402.06383308
  -exchange      EXHF   =         0.00000000
  -V(xc)+E(xc)   XCENC  =      1506.69272791
  PAW double counting   =     44069.17979842   -47719.17369445
  entropy T*S    EENTRO =         0.00000000
  eigenvalues    EBANDS =     -2311.01695150
  atomic energy  EATOM  =     47291.80987837
  Solvation  Ediel_sol  =         0.00000000
  ---------------------------------------------------
  free energy    TOTEN  =       -97.37961322 eV

  energy without entropy =      -97.37961322  energy(sigma->0) =      -97.37961322


--------------------------------------------------------------------------------------------------------




--------------------------------------- Iteration      1(  30)  ---------------------------------------


    POTLOK:  cpu time    0.3360: real time    0.3465
    SETDIJ:  cpu time    0.0080: real time    0.0074
     EDDAV:  cpu time    7.5520: real time    7.5541
       DOS:  cpu time    0.0000: real time    0.0008
    CHARGE:  cpu time    0.1520: real time    0.1523
    MIXING:  cpu time    0.0280: real time    0.0258
    --------------------------------------------
      LOOP:  cpu time    8.0760: real time    8.0869

 eigenvalue-minimisations  :  1480
 total energy-change (2. order) :-0.1662612E-01  (-0.5700054E-04)
[...]
  0.000  -0.000   0.000  -0.000   0.000   0.000  -0.000   0.000   0.000   0.000   0.000  -0.000  -0.000   0.000  -0.000  -0.000
 -0.000  -0.000   0.000  -0.000   0.000   0.000   0.000  -0.000   0.000  -0.000  -0.000  -0.000   0.000  -0.000  -0.000  -0.000
 -0.000   0.000   0.000  -0.000   0.000  -0.000  -0.000   0.000   0.000  -0.000  -0.000   0.000  -0.000   0.000   0.000   0.000
  0.000  -0.000  -0.000  -0.000   0.000   0.000  -0.000  -0.000   0.000   0.000   0.000  -0.000  -0.000   0.000   0.000   0.000
  0.000   0.000  -0.000   0.000  -0.000  -0.000   0.000   0.000  -0.000   0.000   0.000  -0.000  -0.000   0.000   0.000   0.000
  0.000  -0.000  -0.000   0.000  -0.000   0.000  -0.000  -0.000  -0.000   0.000   0.000  -0.000   0.000  -0.000  -0.000  -0.000
 -0.000   0.000   0.000   0.000  -0.000   0.000   0.000   0.000   0.000  -0.000  -0.000   0.000   0.000  -0.000  -0.000  -0.000


------------------------ aborting loop because EDIFF is reached ----------------------------------------


 


 total charge     
 
# of ion       s       p       d       tot
------------------------------------------
    1        0.481   0.402   9.199  10.082
    2        0.472   0.242   9.223   9.936
    3        0.457   0.252   9.228   9.937
    4        0.461   0.266   9.220   9.947
    5        0.452   0.224   9.244   9.920
    6        0.468   0.236   9.215   9.919
    7        0.438   0.240   9.247   9.925
    8        0.452   0.242   9.237   9.931
    9        0.450   0.265   9.226   9.941
   10        0.483   0.167   9.259   9.909
   11        0.465   0.397   9.196  10.058
   12        0.456   0.212   9.234   9.902
   13        0.467   0.171   9.263   9.901
   14        0.504   0.101   9.283   9.888
   15        0.454   0.276   9.219   9.949
   16        0.453   0.205   9.262   9.920
   17        0.449   0.357   9.193   9.999
   18        0.446   0.353   9.193   9.992
   19        0.443   0.301   9.208   9.952
   20        0.451   0.239   9.237   9.928
   21        0.434   0.337   9.202   9.973
   22        0.456   0.187   9.274   9.917
   23        0.461   0.313   9.205   9.979
   24        0.443   0.280   9.221   9.943
   25        0.462   0.185   9.260   9.907
   26        0.447   0.266   9.229   9.942
   27        0.458   0.269   9.218   9.945
   28        0.471   0.166   9.261   9.898
   29        0.444   0.199   9.257   9.900
   30        0.469   0.238   9.226   9.932
   31        0.453   0.386   9.196  10.034
   32        0.445   0.231   9.249   9.924
   33        0.508   0.096   9.278   9.882
   34        0.475   0.189   9.248   9.912
--------------------------------------------------
tot         15.627   8.489 313.907 338.023
 


 magnetization (x)
 
# of ion       s       p       d       tot
------------------------------------------
    1       -0.000   0.000  -0.000   0.000
    2       -0.000   0.000  -0.000  -0.000
    3       -0.000  -0.000   0.000   0.000
    4       -0.000  -0.000   0.000  -0.000
    5        0.000   0.000   0.000   0.000
    6        0.000   0.000   0.000   0.000
    7       -0.000  -0.000  -0.000  -0.000
    8        0.000   0.000  -0.000   0.000
    9        0.000  -0.000   0.000   0.000
   10       -0.000  -0.000   0.000   0.000
   11       -0.000   0.000  -0.000  -0.000
   12       -0.000  -0.000  -0.000  -0.000
   13        0.000   0.000   0.000   0.000
   14        0.000   0.000  -0.000  -0.000
   15       -0.000   0.000   0.000   0.000
   16       -0.000  -0.000  -0.000  -0.000
   17        0.000   0.000  -0.000  -0.000
   18        0.000   0.000   0.000   0.000
   19        0.000   0.000   0.000   0.000
   20       -0.000   0.000  -0.000  -0.000
   21        0.000   0.000  -0.000  -0.000
   22       -0.000  -0.000  -0.000  -0.000
   23        0.000   0.000  -0.000   0.000
   24       -0.000  -0.000  -0.000  -0.000
   25       -0.000  -0.000  -0.000  -0.000
   26        0.000   0.000   0.000   0.000
   27       -0.000  -0.000   0.000   0.000
   28       -0.000   0.000  -0.000  -0.000
   29        0.000   0.000   0.000   0.000
   30       -0.000   0.000   0.000   0.000
   31       -0.000   0.000  -0.000  -0.000
   32        0.000  -0.000  -0.000  -0.000
   33        0.000   0.000  -0.000  -0.000
   34       -0.000   0.000  -0.000  -0.000
--------------------------------------------------
tot         -0.000   0.000  -0.000   0.000
 
    CHARGE:  cpu time    0.1560: real time    0.1549
    FORLOC:  cpu time    0.0240: real time    0.0223
    FORNL :  cpu time    3.2120: real time    3.2149
    STRESS:  cpu time    5.1400: real time    5.1398
    FORCOR:  cpu time    0.3280: real time    0.3273
    FORHAR:  cpu time    0.0560: real time    0.0549
    MIXING:  cpu time    0.0480: real time    0.0477
    OFIELD:  cpu time    0.0000: real time    0.0001

  FORCE on cell =-STRESS in cart. coord.  units (eV):
  Direction    XX          YY          ZZ          XY          YZ          ZX
  --------------------------------------------------------------------------------------
  Alpha Z    78.76087    78.76087    78.76087
  Ewald   31411.37036 32683.06479 42293.92867  6531.74513  2010.45344 -7883.23520
  Hartree 46003.59489 47063.10441 56327.04936  6124.42574  1731.38130 -7409.73555
  E(xc)   -2182.96918 -2182.59679 -2182.41759     0.55700     0.55991    -0.46618
  Local  -80794.64367-83116.47513************-12656.34976 -3732.43153 15288.86923
  n-local  -793.15843  -792.31299  -790.91773     2.69197    -0.79222    -1.98591
  augment  3200.95571  3195.89633  3198.12190    -1.24548    -4.35537     2.90855
  Kinetic  3066.47190  3061.08381  3062.52680    -1.89722    -5.09666     3.66410
  Fock        0.00000     0.00000     0.00000     0.00000     0.00000     0.00000
  -------------------------------------------------------------------------------------
  Total      -9.61755    -9.47470    -9.97119    -0.07263    -0.28113     0.01903
  in kB      -1.43554    -1.41422    -1.48833    -0.01084    -0.04196     0.00284
  external pressure =       -1.45 kB  Pullay stress =        0.00 kB


 VOLUME and BASIS-vectors are now :
 -----------------------------------------------------------------------------
  energy-cutoff  :      295.45
  volume of cell :    10733.95
      direct lattice vectors                 reciprocal lattice vectors
    22.059035000  0.000000000  0.000000000     0.045332899  0.000000000  0.000000000
     0.000000000 22.059035000  0.000000000     0.000000000  0.045332899  0.000000000
     0.000000000  0.000000000 22.059035000     0.000000000  0.000000000  0.045332899

  length of vectors
    22.059035000 22.059035000 22.059035000     0.045332899  0.045332899  0.045332899


 FORCES acting on ions
    electron-ion (+dipol)            ewald-force                    non-local-force                 convergence-correction
 -----------------------------------------------------------------------------------------------
   -.397E+03 -.151E+03 0.111E+04   0.397E+03 0.152E+03 -.111E+04   0.418E+00 -.122E+00 0.196E+01   0.162E-03 -.415E-04 0.188E-03
   0.727E+03 -.104E+04 0.161E+04   -.726E+03 0.104E+04 -.160E+04   -.369E+00 0.344E+01 -.336E+01   -.747E-05 0.671E-04 0.890E-04
   -.140E+04 0.142E+04 0.408E+03   0.140E+04 -.142E+04 -.408E+03   0.230E+01 -.365E+01 -.696E-01   -.560E-06 0.236E-03 -.101E-04
   0.127E+04 0.149E+04 0.529E+03   -.127E+04 -.149E+04 -.528E+03   -.190E+01 -.393E+01 -.113E+01   0.150E-04 0.224E-03 0.390E-04
   -.107E+04 0.701E+03 0.154E+04   0.106E+04 -.700E+03 -.154E+04   0.333E+01 -.166E+01 -.540E+01   -.643E-04 -.122E-03 0.156E-03
   0.137E+04 -.123E+04 0.542E+03   -.137E+04 0.122E+04 -.542E+03   -.279E+01 0.171E+01 -.294E+00   0.182E-03 -.300E-04 0.928E-04
   -.752E+03 -.119E+04 0.140E+04   0.751E+03 0.119E+04 -.139E+04   0.180E+01 0.126E+01 -.537E+01   0.225E-04 0.124E-03 0.141E-03
   -.456E+03 -.187E+04 0.267E+02   0.456E+03 0.187E+04 -.284E+02   -.106E+00 0.458E+01 0.173E+01   0.140E-03 0.346E-04 -.104E-03
   -.123E+04 -.755E+03 -.117E+04   0.122E+04 0.755E+03 0.117E+04   0.404E+01 -.461E+00 0.261E+01   -.233E-04 -.785E-04 -.549E-04
   0.175E+04 -.110E+04 -.235E+03   -.174E+04 0.109E+04 0.236E+03   -.677E+01 0.565E+01 -.208E+00   0.107E-03 0.194E-04 0.800E-04
   0.626E+03 -.602E+03 -.499E+03   -.624E+03 0.602E+03 0.497E+03   -.160E+01 0.153E+00 0.123E+01   0.312E-03 0.156E-04 -.114E-03
   -.177E+04 0.839E+02 0.107E+04   0.177E+04 -.829E+02 -.107E+04   0.596E+01 -.972E+00 -.377E+01   -.135E-03 0.754E-04 0.257E-03
   0.644E+03 0.107E+04 -.161E+04   -.641E+03 -.107E+04 0.160E+04   -.266E+01 -.426E+01 0.686E+01   -.414E-04 0.961E-04 -.189E-03
   -.131E+04 -.116E+04 -.462E+03   0.130E+04 0.115E+04 0.458E+03   0.857E+01 0.687E+01 0.435E+01   -.184E-03 0.915E-04 -.430E-04
   -.467E+01 -.195E+03 -.195E+04   0.377E+01 0.195E+03 0.195E+04   0.912E+00 0.318E+00 0.342E+01   0.198E-03 -.513E-04 -.223E-03
   -.208E+03 0.214E+04 0.170E+02   0.206E+03 -.213E+04 -.162E+02   0.191E+01 -.749E+01 -.771E+00   -.159E-03 0.101E-03 0.533E-05
   -.101E+04 -.949E+01 -.128E+04   0.101E+04 0.949E+01 0.128E+04   -.551E+00 -.147E-01 0.304E+00   -.330E-04 0.281E-04 -.412E-04
   0.222E+03 0.133E+04 -.766E+03   -.221E+03 -.133E+04 0.765E+03   -.746E+00 0.174E+01 0.962E+00   -.270E-04 0.493E-04 -.969E-04
   0.378E+03 0.147E+04 0.100E+04   -.379E+03 -.147E+04 -.100E+04   0.802E+00 -.149E+01 -.137E+01   -.124E-03 -.370E-04 -.113E-03
   -.141E+04 0.135E+04 -.777E+03   0.141E+04 -.135E+04 0.775E+03   0.423E+01 -.433E+01 0.201E+01   -.438E-04 0.212E-03 0.813E-04
   -.627E+02 -.102E+04 -.667E+02   0.628E+02 0.102E+04 0.681E+02   -.544E-01 0.396E+00 -.140E+01   0.310E-05 -.174E-03 0.155E-03
   0.853E+03 -.126E+04 -.142E+04   -.849E+03 0.125E+04 0.142E+04   -.392E+01 0.742E+01 0.501E+01   0.221E-03 0.282E-04 -.135E-03
   -.166E+04 0.278E+03 -.309E+03   0.166E+04 -.277E+03 0.310E+03   0.439E+00 -.611E+00 -.799E+00   0.574E-04 0.140E-03 0.595E-05
   0.145E+04 0.131E+03 0.116E+04   -.145E+04 -.132E+03 -.116E+04   -.204E+01 0.648E+00 -.190E+01   -.475E-04 -.184E-03 0.706E-04
   0.151E+04 0.135E+04 -.438E+03   -.150E+04 -.134E+04 0.438E+03   -.611E+01 -.608E+01 0.713E+00   0.154E-03 0.101E-03 -.309E-04
   0.160E+04 0.903E+02 -.117E+04   -.160E+04 -.906E+02 0.117E+04   -.272E+01 0.232E+00 0.193E+01   0.247E-04 -.165E-03 -.732E-04
   0.190E+04 0.187E+03 0.352E+03   -.190E+04 -.187E+03 -.351E+03   -.236E+01 0.859E+00 -.594E+00   0.195E-03 -.272E-03 -.396E-04
   -.849E+03 0.969E+03 -.163E+04   0.843E+03 -.964E+03 0.162E+04   0.549E+01 -.422E+01 0.548E+01   -.156E-04 0.161E-03 -.204E-03
   -.247E+03 -.148E+04 -.136E+04   0.247E+03 0.147E+04 0.136E+04   -.114E+00 0.673E+01 0.251E+01   0.238E-05 -.183E-03 -.519E-04
   -.180E+04 -.577E+03 0.369E+03   0.180E+04 0.575E+03 -.368E+03   0.362E+01 0.226E+01 -.878E+00   -.215E-04 -.141E-03 0.921E-04
   0.417E+02 0.485E+03 0.768E+02   -.417E+02 -.484E+03 -.760E+02   0.181E-01 -.164E+01 -.785E+00   0.657E-05 0.103E-03 0.125E-03
   0.559E+03 -.862E+02 0.191E+04   -.556E+03 0.856E+02 -.190E+04   -.214E+01 0.632E+00 -.605E+01   -.173E-03 -.296E-03 0.933E-04
   0.192E+03 0.108E+04 0.145E+04   -.190E+03 -.107E+04 -.144E+04   -.230E+01 -.811E+01 -.729E+01   -.147E-03 0.222E-04 0.195E-03
   0.533E+03 -.191E+04 0.594E+03   -.529E+03 0.190E+04 -.594E+03   -.428E+01 0.749E+01 0.587E+00   0.246E-03 0.306E-04 -.113E-03
 -----------------------------------------------------------------------------------------------
   -.394E+00 -.341E+01 0.955E-03   0.796E-12 0.455E-12 0.114E-11   0.323E+00 0.336E+01 0.248E+00   0.801E-03 0.184E-03 0.232E-03
 
 
 POSITION                                       TOTAL-FORCE (eV/Angst)
 -----------------------------------------------------------------------------------
     11.85173     11.03104      8.86855        -0.021683      0.024666     -0.024052
     10.22645     12.65459      8.16638        -0.000295     -0.011136     -0.001516
     13.01371      8.95906      9.74797         0.009335      0.004838      0.028564
      8.98984      8.57336     10.52747        -0.007534     -0.003050      0.004686
     12.77592      9.42974      7.34030        -0.010241      0.006885      0.023019
      8.96838     12.78859     10.30178        -0.011048      0.001229      0.010230
     12.66738     13.26543      8.79112        -0.016670     -0.010219     -0.035051
     12.86784     14.68638     10.75909        -0.005180     -0.002501      0.001422
     13.44634     13.02851     12.47965         0.007094     -0.004828     -0.012466
      7.46354     12.68512     12.31823        -0.003532     -0.013694     -0.025253
      9.70814     11.72543     12.37725        -0.017520     -0.008161      0.020356
     14.19865     11.04655      8.71412         0.014410      0.001234      0.035256
      9.18604      8.80607     14.92097        -0.009186      0.000117      0.028209
     15.01745     14.73842     11.81061         0.014952     -0.008844      0.007717
     10.27722     11.00293     14.73501         0.013047      0.000380     -0.038649
     11.16675      7.61642     10.90252        -0.002996     -0.005509      0.016692
     12.03648     11.02421     13.04224         0.022286     -0.006973     -0.022507
     10.21936      8.95217     12.82002         0.001389      0.006403     -0.025823
     10.73868      8.70079      8.67921         0.000043      0.008078     -0.017535
     12.71847      8.87836     12.28072         0.005606     -0.008612      0.027160
     11.47272     12.64131     10.99216         0.007800      0.010940     -0.007311
      8.86719     12.90407     14.32166        -0.006013     -0.013387     -0.016960
     13.43132     10.96748     11.02233         0.003784     -0.021355      0.034522
      9.22992     10.62847      9.11832         0.009031      0.002771     -0.031418
      7.88427      8.50513     12.71579         0.012610      0.003738      0.003281
      7.98394     10.66277     13.75858         0.006404      0.019969      0.018414
      7.89639     10.56348     11.23317        -0.011987      0.015111      0.030536
     11.73030      9.06782     14.64369        -0.004122      0.003419     -0.019923
     11.23958     13.20388     13.58980        -0.001354      0.008799     -0.046469
     14.60932     12.94633     10.26168        -0.001246     -0.005015     -0.034986
     10.95083     10.10919     10.87926         0.015022     -0.011685      0.018917
     10.53019     10.49457      6.95317        -0.001416      0.005785     -0.014276
     10.95301      8.21970      6.30359        -0.010787      0.009807      0.021105
     10.68626     14.49625      9.62718        -0.000006      0.000803      0.044108
 -----------------------------------------------------------------------------------
    total drift:                               -0.070577     -0.050171      0.249444


--------------------------------------------------------------------------------------------------------



  FREE ENERGIE OF THE ION-ELECTRON SYSTEM (eV)
  ---------------------------------------------------
  free  energy   TOTEN  =       -97.42114750 eV

  energy  without entropy=      -97.42114750  energy(sigma->0) =      -97.42114750
 


--------------------------------------------------------------------------------------------------------


    POTLOK:  cpu time    0.3400: real time    0.3394


--------------------------------------------------------------------------------------------------------




--------------------------------------------------------------------------------------------------------


  
 reached required accuracy - stopping structural energy minimisation
     LOOP+:  cpu time  318.1400: real time  318.5787
    4ORBIT:  cpu time    0.0000: real time    0.0000
 


 total charge     
 
# of ion       s       p       d       tot
------------------------------------------
    1        0.481   0.402   9.199  10.082
    2        0.472   0.242   9.223   9.936
    3        0.457   0.252   9.228   9.937
    4        0.461   0.266   9.220   9.947
    5        0.452   0.224   9.244   9.920
    6        0.468   0.236   9.215   9.919
    7        0.438   0.240   9.247   9.925
    8        0.452   0.242   9.237   9.931
    9        0.450   0.265   9.226   9.941
   10        0.483   0.167   9.259   9.909
   11        0.465   0.397   9.196  10.058
   12        0.456   0.212   9.234   9.902
   13        0.467   0.171   9.263   9.901
   14        0.504   0.101   9.283   9.888
   15        0.454   0.276   9.219   9.949
   16        0.453   0.205   9.262   9.920
   17        0.449   0.357   9.193   9.999
   18        0.446   0.353   9.193   9.992
   19        0.443   0.301   9.208   9.952
   20        0.451   0.239   9.237   9.928
   21        0.434   0.337   9.202   9.973
   22        0.456   0.187   9.274   9.917
   23        0.461   0.313   9.205   9.979
   24        0.443   0.280   9.221   9.943
   25        0.462   0.185   9.260   9.907
   26        0.447   0.266   9.229   9.942
   27        0.458   0.269   9.218   9.945
   28        0.471   0.166   9.261   9.898
   29        0.444   0.199   9.257   9.900
   30        0.469   0.238   9.226   9.932
   31        0.453   0.386   9.196  10.034
   32        0.445   0.231   9.249   9.924
   33        0.508   0.096   9.278   9.882
   34        0.475   0.189   9.248   9.912
--------------------------------------------------
tot         15.627   8.489 313.907 338.023
 


 magnetization (x)
 
# of ion       s       p       d       tot
------------------------------------------
    1       -0.000   0.000  -0.000   0.000
    2       -0.000   0.000  -0.000  -0.000
    3       -0.000  -0.000   0.000   0.000
    4       -0.000  -0.000   0.000  -0.000
    5        0.000   0.000   0.000   0.000
    6        0.000   0.000   0.000   0.000
    7       -0.000  -0.000  -0.000  -0.000
    8        0.000   0.000  -0.000   0.000
    9        0.000  -0.000   0.000   0.000
   10       -0.000  -0.000   0.000   0.000
   11       -0.000   0.000  -0.000  -0.000
   12       -0.000  -0.000  -0.000  -0.000
   13        0.000   0.000   0.000   0.000
   14        0.000   0.000  -0.000  -0.000
   15       -0.000   0.000   0.000   0.000
   16       -0.000  -0.000  -0.000  -0.000
   17        0.000   0.000  -0.000  -0.000
   18        0.000   0.000   0.000   0.000
   19        0.000   0.000   0.000   0.000
   20       -0.000   0.000  -0.000  -0.000
   21        0.000   0.000  -0.000  -0.000
   22       -0.000  -0.000  -0.000  -0.000
   23        0.000   0.000  -0.000   0.000
   24       -0.000  -0.000  -0.000  -0.000
   25       -0.000  -0.000  -0.000  -0.000
   26        0.000   0.000   0.000   0.000
   27       -0.000  -0.000   0.000   0.000
   28       -0.000   0.000  -0.000  -0.000
   29        0.000   0.000   0.000   0.000
   30       -0.000   0.000   0.000   0.000
   31       -0.000   0.000  -0.000  -0.000
   32        0.000  -0.000  -0.000  -0.000
   33        0.000   0.000  -0.000  -0.000
   34       -0.000   0.000  -0.000  -0.000
--------------------------------------------------
tot         -0.000   0.000  -0.000   0.000
 

 total amount of memory used by VASP MPI-rank0    74387. kBytes
=======================================================================

   base      :      30000. kBytes
   nonl-proj :       3880. kBytes
   fftplans  :       7872. kBytes
   grid      :      20041. kBytes
   one-center:         62. kBytes
   wavefun   :      12532. kBytes
 
  
  
 General timing and accounting informations for this job:
 ========================================================
  
                  Total CPU time used (sec):      324.632
                            User time (sec):      322.184
                          System time (sec):        2.448
                         Elapsed time (sec):      325.088
  
                   Maximum memory used (kb):       40620.
                   Average memory used (kb):           0.
  
                          Minor page faults:        15877
                          Major page faults:           28
                 Voluntary context switches:          575
