 vasp.5.4.4.18Apr17-6-g9f103f2a35 (build Jan 23 2020 13:04:52) gamma-only       
  
 executed on           IFC91_ompi date 2020.12.30  13:57:49
 running on   44 total cores
 distrk:  each k-point on   44 cores,    1 groups
 distr:  one band on NCORES_PER_BAND=  11 cores,    4 groups


--------------------------------------------------------------------------------------------------------


 INCAR:
 POTCAR:    PAW_PBE Cu 22Jun2005                  
 POTCAR:    PAW_PBE Cu 22Jun2005                  
   VRHFIN =Cu: d10 p1                                                           
   LEXCH  = PE                                                                  
   EATOM  =  1390.9808 eV,  102.2342 Ry                                         
                                                                                
   TITEL  = PAW_PBE Cu 22Jun2005                                                
   LULTRA =        F    use ultrasoft PP ?                                      
   IUNSCR =        1    unscreen: 0-lin 1-nonlin 2-no                           
   RPACOR =    2.000    partial core radius                                     
   POMASS =   63.546; ZVAL   =   11.000    mass and valenz                      
   RCORE  =    2.300    outmost cutoff radius                                   
   RWIGS  =    2.200; RWIGS  =    1.164    wigner-seitz radius (au A)           
   ENMAX  =  295.446; ENMIN  =  221.585 eV                                      
   ICORE  =        3    local potential                                         
   LCOR   =        T    correct aug charges                                     
   LPAW   =        T    paw PP                                                  
   EAUG   =  586.980                                                            
   DEXC   =    0.000                                                            
   RMAX   =    2.344    core radius for proj-oper                               
   RAUG   =    1.300    factor for augmentation sphere                          
   RDEP   =    2.302    radius for radial grids                                 
   RDEPT  =    1.771    core radius for aug-charge                              
                                                                                
   Atomic configuration                                                         
    9 entries                                                                   
     n  l   j            E        occ.                                          
     1  0  0.50     -8850.2468   2.0000                                         
     2  0  0.50     -1062.3498   2.0000                                         
     2  1  1.50      -916.8226   6.0000                                         
     3  0  0.50      -114.6929   2.0000                                         
     3  1  1.50       -72.1325   6.0000                                         
     3  2  2.50        -5.0394  10.0000                                         
     4  0  0.50        -4.6097   1.0000                                         
     4  1  0.50        -4.0817   0.0000                                         
     4  3  2.50        -1.3606   0.0000                                         
   Description                                                                  
     l       E           TYP  RCUT    TYP  RCUT                                 
     2     -5.0393973     23  2.200                                             
     2     10.8846608     23  2.200                                             
     0     -4.6097109     23  2.200                                             
     0      8.2520465     23  2.200                                             
     1     -2.7211652     23  2.200                                             
     1     21.7055443     23  2.200                                             
     3      2.7211652     23  2.300                                             
  local pseudopotential read in
  partial core-charges read in
  partial kinetic energy density read in
  atomic valenz-charges read in
  non local Contribution for L=           2  read in
    real space projection operators read in
  non local Contribution for L=           2  read in
    real space projection operators read in
  non local Contribution for L=           0  read in
    real space projection operators read in
  non local Contribution for L=           0  read in
    real space projection operators read in
  non local Contribution for L=           1  read in
    real space projection operators read in
  non local Contribution for L=           1  read in
    real space projection operators read in
    PAW grid and wavefunctions read in
 
   number of l-projection  operators is LMAX  =           6
   number of lm-projection operators is LMMAX =          18
 

 ----------------------------------------------------------------------------- 
|                                                                             |
|  ADVICE TO THIS USER RUNNING 'VASP/VAMP'   (HEAR YOUR MASTER'S VOICE ...):  |
|                                                                             |
|      You have a (more or less) 'large supercell' and for larger cells       |
|      it might be more efficient to use real space projection opertators     |
|      So try LREAL= Auto  in the INCAR   file.                               |
|      Mind:          For very  accurate calculation you might also keep the  |
|      reciprocal projection scheme          (i.e. LREAL=.FALSE.)             |
|                                                                             |
 ----------------------------------------------------------------------------- 

  PAW_PBE Cu 22Jun2005                  :
 energy of atom  1       EATOM=-1390.9808
 kinetic energy error for atom=    0.0452 (will be added to EATOM!!)
 
 
 POSCAR: unknown system                          
  positions in direct lattice
  No initial velocities read in
 exchange correlation table for  LEXCH =        8
   RHO(1)=    0.500       N(1)  =     2000
   RHO(2)=  100.500       N(2)  =     4000
 


--------------------------------------------------------------------------------------------------------


 ion  position               nearest neighbor table
   1  0.645  0.420  0.586-   5 2.38   8 2.38   2 2.39  12 2.46   4 2.48  14 2.73
   2  0.600  0.512  0.615-   1 2.39   3 2.45   6 2.45   9 2.46  14 2.50   4 2.58
   3  0.522  0.587  0.629-  11 2.43   2 2.45  10 2.45  15 2.47   9 2.53   6 2.55   7 2.61
   4  0.663  0.507  0.519-  14 2.45   1 2.48   5 2.50   6 2.51  17 2.52  16 2.52   2 2.58
   5  0.701  0.404  0.498-   1 2.38  16 2.39  12 2.46   4 2.50
   6  0.586  0.586  0.535-   2 2.45  10 2.46  27 2.48  17 2.49   4 2.51   3 2.55  15 2.59  14 2.61

   7  0.417  0.625  0.598-  10 2.44  11 2.45  29 2.46  26 2.46  15 2.47  30 2.58   3 2.61
   8  0.546  0.385  0.598-   1 2.38   9 2.42  13 2.43  25 2.44  12 2.49  14 2.70
   9  0.496  0.478  0.618-   8 2.42  11 2.42   2 2.46  13 2.47  19 2.50   3 2.53  15 2.56  14 2.63
                            20 2.73
  10  0.508  0.661  0.550-  27 2.42   7 2.44   3 2.45   6 2.46  30 2.47  15 2.53
  11  0.431  0.546  0.672-  26 2.41   9 2.42   3 2.43   7 2.45  19 2.46
  12  0.599  0.366  0.503-  25 2.46   1 2.46   5 2.46  16 2.49   8 2.49  23 2.51  14 2.62
  13  0.437  0.387  0.598-   8 2.43  20 2.44  19 2.44  25 2.46   9 2.47
  14  0.559  0.474  0.519-   4 2.45  20 2.49   2 2.50  18 2.57  23 2.57  16 2.60   6 2.61  12 2.62
                             9 2.63  15 2.63   8 2.70   1 2.73
  15  0.475  0.555  0.535-  18 2.45   3 2.47   7 2.47  30 2.48  20 2.53  10 2.53   9 2.56   6 2.59
                            14 2.63  29 2.70
  16  0.629  0.445  0.431-   5 2.39  17 2.42  22 2.44  23 2.45  12 2.49   4 2.52  14 2.60
  17  0.608  0.551  0.432-  16 2.42  21 2.46  27 2.49   6 2.49   4 2.52  18 2.52  22 2.62
  18  0.499  0.523  0.434-  33 2.43  15 2.45  22 2.50  17 2.52  27 2.53  21 2.56  32 2.56  14 2.57
                            23 2.61  20 2.61  31 2.71  35 2.74
  19  0.388  0.484  0.593-  26 2.42  29 2.44  13 2.44  11 2.46  34 2.48   9 2.50  20 2.50
  20  0.451  0.448  0.509-  34 2.42  13 2.44  25 2.48  35 2.49  14 2.49  19 2.50  15 2.53  23 2.57
                            18 2.61   9 2.73
  21  0.544  0.585  0.349-  31 2.39  22 2.39  17 2.46  27 2.48  33 2.54  18 2.56
  22  0.562  0.480  0.352-  21 2.39  16 2.44  28 2.46  23 2.49  18 2.50  33 2.58  17 2.62
  23  0.525  0.410  0.430-  24 2.37  28 2.43  16 2.45  25 2.47  22 2.49  12 2.51  20 2.57  14 2.57
                            18 2.61  35 2.72
  24  0.446  0.342  0.414-  23 2.37  35 2.39  25 2.44  28 2.51
  25  0.492  0.345  0.513-   8 2.44  24 2.44  12 2.46  13 2.46  23 2.47  20 2.48
  26  0.332  0.566  0.635-  11 2.41  19 2.42  29 2.43   7 2.46
  27  0.531  0.630  0.450-  10 2.42  31 2.48  21 2.48   6 2.48  17 2.49  18 2.53  30 2.54
  28  0.481  0.409  0.331-  35 2.41  23 2.43  22 2.46  33 2.50  24 2.51
  29  0.355  0.566  0.529-  32 2.42  26 2.43  34 2.44  19 2.44  30 2.45   7 2.46  15 2.70
  30  0.424  0.638  0.484-  31 2.44  29 2.45  10 2.47  15 2.48  27 2.54  32 2.57   7 2.58
  31  0.447  0.618  0.380-  32 2.39  21 2.39  30 2.44  33 2.47  27 2.48  18 2.71
  32  0.387  0.544  0.429-  31 2.39  35 2.40  29 2.42  34 2.47  18 2.56  30 2.57  33 2.65
  33  0.455  0.517  0.335-  18 2.43  31 2.47  35 2.49  28 2.50  21 2.54  22 2.58  32 2.65
  34  0.346  0.464  0.492-  20 2.42  29 2.44  32 2.47  35 2.47  19 2.48
  35  0.411  0.443  0.406-  24 2.39  32 2.40  28 2.41  34 2.47  33 2.49  20 2.49  23 2.72  18 2.74

 
  LATTYP: Found a simple cubic cell.
 ALAT       =    22.4412200000
  
  Lattice vectors:
  
 A1 = (  22.4412200000,   0.0000000000,   0.0000000000)
 A2 = (   0.0000000000,  22.4412200000,   0.0000000000)
 A3 = (   0.0000000000,   0.0000000000,  22.4412200000)


Analysis of symmetry for initial positions (statically):
=====================================================================
 Subroutine PRICEL returns:
 Original cell was already a primitive cell.
 

 Routine SETGRP: Setting up the symmetry group for a 
 simple cubic supercell.


 Subroutine GETGRP returns: Found  1 space group operations
 (whereof  1 operations were pure point group operations)
 out of a pool of 48 trial point group operations.


The static configuration has the point symmetry C_1 .


Analysis of symmetry for dynamics (positions and initial velocities):
=====================================================================
 Subroutine PRICEL returns:
 Original cell was already a primitive cell.
 

 Routine SETGRP: Setting up the symmetry group for a 
 simple cubic supercell.


 Subroutine GETGRP returns: Found  1 space group operations
 (whereof  1 operations were pure point group operations)
 out of a pool of 48 trial point group operations.


The dynamic configuration has the point symmetry C_1 .


Analysis of structural, dynamic, and magnetic symmetry:
=====================================================================
 Subroutine PRICEL returns:
 Original cell was already a primitive cell.
 

 Routine SETGRP: Setting up the symmetry group for a 
 simple cubic supercell.


 Subroutine GETGRP returns: Found  1 space group operations
 (whereof  1 operations were pure point group operations)
 out of a pool of 48 trial point group operations.


The magnetic configuration has the point symmetry C_1 .


 Subroutine INISYM returns: Found  1 space group operations
 (whereof  1 operations are pure point group operations),
 and found     1 'primitive' translations

 
 
 KPOINTS: Gamma-point only                        
  k-points in reciprocal lattice
Space group operators:
 irot       det(A)        alpha          n_x          n_y          n_z        tau_x        tau_y        tau_z
    1     1.000000     0.000000     1.000000     0.000000     0.000000     0.000000     0.000000     0.000000


--------------------------------------------------------------------------------------------------------




 Dimension of arrays:
   k-points           NKPTS =      1   k-points in BZ     NKDIM =      1   number of bands    NBANDS=    284
   number of dos      NEDOS =    301   number of ions     NIONS =     35
   non local maximal  LDIM  =      6   non local SUM 2l+1 LMDIM =     18
   total plane-waves  NPLWV = 884736
   max r-space proj   IRMAX =      1   max aug-charges    IRDMAX=   2467
   dimension x,y,z NGX =    96 NGY =   96 NGZ =   96
   dimension x,y,z NGXF=   192 NGYF=  192 NGZF=  192
   support grid    NGXF=   192 NGYF=  192 NGZF=  192
   ions per type =              35
   NGX,Y,Z   is equivalent  to a cutoff of   7.11,  7.11,  7.11 a.u.
   NGXF,Y,Z  is equivalent  to a cutoff of  14.22, 14.22, 14.22 a.u.

 SYSTEM =  unknown system                          
 POSCAR =  unknown system                          

 Startparameter for this run:
   NWRITE =      2    write-flag & timer
   PREC   = normal    normal or accurate (medium, high low for compatibility)
   ISTART =      0    job   : 0-new  1-cont  2-samecut
   ICHARG =      2    charge: 1-file 2-atom 10-const
   ISPIN  =      2    spin polarized calculation?
   LNONCOLLINEAR =      F non collinear calculations
   LSORBIT =      F    spin-orbit coupling
   INIWAV =      1    electr: 0-lowe 1-rand  2-diag
   LASPH  =      F    aspherical Exc in radial PAW
   METAGGA=      F    non-selfconsistent MetaGGA calc.

 Electronic Relaxation 1
   ENCUT  =  295.4 eV  21.71 Ry    4.66 a.u.  31.45 31.45 31.45*2*pi/ulx,y,z
   ENINI  =  295.4     initial cutoff
   ENAUG  =  587.0 eV  augmentation charge cutoff
   NELM   =     60;   NELMIN=  2; NELMDL= -5     # of ELM steps 
   EDIFF  = 0.1E-04   stopping-criterion for ELM
   LREAL  =      F    real-space projection
   NLSPLINE    = F    spline interpolate recip. space projectors
   LCOMPAT=      F    compatible to vasp.4.4
   GGA_COMPAT  = T    GGA compatible to vasp.4.4-vasp.4.6
   LMAXPAW     = -100 max onsite density
   LMAXMIX     =    2 max onsite mixed and CHGCAR
   VOSKOWN=      0    Vosko Wilk Nusair interpolation
   ROPT   =    0.00000
 Ionic relaxation
   EDIFFG = -.1E+00   stopping-criterion for IOM
   NSW    =    101    number of steps for IOM
   NBLOCK =      1;   KBLOCK =    101    inner block; outer block 
   IBRION =      2    ionic relax: 0-MD 1-quasi-New 2-CG
   NFREE  =      1    steps in history (QN), initial steepest desc. (CG)
   ISIF   =      2    stress and relaxation
   IWAVPR =     11    prediction:  0-non 1-charg 2-wave 3-comb
   ISYM   =      2    0-nonsym 1-usesym 2-fastsym
   LCORR  =      T    Harris-Foulkes like correction to forces

   POTIM  = 0.5000    time-step for ionic-motion
   TEIN   =    0.0    initial temperature
   TEBEG  =    0.0;   TEEND  =   0.0 temperature during run
   SMASS  =  -3.00    Nose mass-parameter (am)
   estimated Nose-frequenzy (Omega)   =  0.10E-29 period in steps =****** mass=  -0.115E-25a.u.
   SCALEE = 1.0000    scale energy and forces
   NPACO  =    256;   APACO  = 16.0  distance and # of slots for P.C.
   PSTRESS=    0.0 pullay stress

  Mass of Ions in am
   POMASS =  63.55
  Ionic Valenz
   ZVAL   =  11.00
  Atomic Wigner-Seitz radii
   RWIGS  =  -1.00
  virtual crystal weights 
   VCA    =   1.00
   NELECT =     385.0000    total number of electrons
   NUPDOWN=      -1.0000    fix difference up-down

 DOS related values:
   EMIN   =  10.00;   EMAX   =-10.00  energy-range for DOS
   EFERMI =   0.00
   ISMEAR =     0;   SIGMA  =   0.00  broadening in eV -4-tet -1-fermi 0-gaus

 Electronic relaxation 2 (details)
   IALGO  =     38    algorithm
   LDIAG  =      T    sub-space diagonalisation (order eigenvalues)
   LSUBROT=      F    optimize rotation matrix (better conditioning)
   TURBO    =      0    0=normal 1=particle mesh
   IRESTART =      0    0=no restart 2=restart with 2 vectors
   NREBOOT  =      0    no. of reboots
   NMIN     =      0    reboot dimension
   EREF     =   0.00    reference energy to select bands
   IMIX   =      4    mixing-type and parameters
     AMIX     =   0.40;   BMIX     =  1.00
     AMIX_MAG =   1.60;   BMIX_MAG =  1.00
     AMIN     =   0.10
     WC   =   100.;   INIMIX=   1;  MIXPRE=   1;  MAXMIX= -45

 Intra band minimization:
   WEIMIN = 0.0010     energy-eigenvalue tresh-hold
   EBREAK =  0.88E-08  absolut break condition
   DEPER  =   0.30     relativ break condition  

   TIME   =   0.40     timestep for ELM

  volume/ion in A,a.u.               =     322.90      2179.05
  Fermi-wavevector in a.u.,A,eV,Ry     =   0.530699  1.002876  3.831970  0.281642
  Thomas-Fermi vector in A             =   1.553382
 
 Write flags
   LWAVE        =      F    write WAVECAR
   LDOWNSAMPLE  =      F    k-point downsampling of WAVECAR
   LCHARG       =      F    write CHGCAR
   LVTOT        =      F    write LOCPOT, total local potential
   LVHAR        =      F    write LOCPOT, Hartree potential only
   LELF         =      F    write electronic localiz. function (ELF)
   LORBIT       =     11    0 simple, 1 ext, 2 COOP (PROOUT), +10 PAW based schemes


 Dipole corrections
   LMONO  =      F    monopole corrections only (constant potential shift)
   LDIPOL =      F    correct potential (dipole corrections)
   IDIPOL =      0    1-x, 2-y, 3-z, 4-all directions 
   EPSILON=  1.0000000 bulk dielectric constant

 Exchange correlation treatment:
   GGA     =    PE    GGA type
   LEXCH   =     8    internal setting for exchange type
   VOSKOWN=      0    Vosko Wilk Nusair interpolation
   LHFCALC =     F    Hartree Fock is set to
   LHFONE  =     F    Hartree Fock one center treatment
   AEXX    =    0.0000 exact exchange contribution

 Linear response parameters
   LEPSILON=     F    determine dielectric tensor
   LRPA    =     F    only Hartree local field effects (RPA)
   LNABLA  =     F    use nabla operator in PAW spheres
   LVEL    =     F    velocity operator in full k-point grid
   LINTERFAST=   F  fast interpolation
   KINTER  =     0    interpolate to denser k-point grid
   CSHIFT  =0.1000    complex shift for real part using Kramers Kronig
   OMEGAMAX=  -1.0    maximum frequency
   DEG_THRESHOLD= 0.2000000E-02 threshold for treating states as degnerate
   RTIME   =   -0.100 relaxation time in fs
  (WPLASMAI=    0.000 imaginary part of plasma frequency in eV, 0.658/RTIME)
   DFIELD  = 0.0000000 0.0000000 0.0000000 field for delta impulse in time
 
 Orbital magnetization related:
   ORBITALMAG=     F  switch on orbital magnetization
   LCHIMAG   =     F  perturbation theory with respect to B field
   DQ        =  0.001000  dq finite difference perturbation B field
   LLRAUG    =     F  two centre corrections for induced B field



--------------------------------------------------------------------------------------------------------


 conjugate gradient relaxation of ions
 charge density and potential will be updated during run
 spin polarized calculation
 Variant of blocked Davidson
 Davidson routine will perform the subspace rotation
 perform sub-space diagonalisation
    after iterative eigenvector-optimisation
 modified Broyden-mixing scheme, WC =      100.0
 initial mixing is a Kerker type mixing with AMIX =  0.4000 and BMIX =      1.0000
 Hartree-type preconditioning will be used
 using additional bands           91
 reciprocal scheme for non local part
 use partial core corrections
 calculate Harris-corrections to forces 
   (improved forces if not selfconsistent)
 use gradient corrections 
 use of overlap-Matrix (Vanderbilt PP)
 Gauss-broadening in eV      SIGMA  =   0.00


--------------------------------------------------------------------------------------------------------


  energy-cutoff  :      295.45
  volume of cell :    11301.59
      direct lattice vectors                 reciprocal lattice vectors
    22.441220000  0.000000000  0.000000000     0.044560857  0.000000000  0.000000000
     0.000000000 22.441220000  0.000000000     0.000000000  0.044560857  0.000000000
     0.000000000  0.000000000 22.441220000     0.000000000  0.000000000  0.044560857

  length of vectors
    22.441220000 22.441220000 22.441220000     0.044560857  0.044560857  0.044560857


 
 k-points in units of 2pi/SCALE and weight: Gamma-point only                        
   0.00000000  0.00000000  0.00000000       1.000
 
 k-points in reciprocal lattice and weights: Gamma-point only                        
   0.00000000  0.00000000  0.00000000       1.000
 
 position of ions in fractional coordinates (direct lattice) 
   0.64491202  0.42041081  0.58577597
   0.59997593  0.51225365  0.61486515
   0.52226829  0.58733366  0.62944188
   0.66296967  0.50657917  0.51896892
   0.70146704  0.40439035  0.49764835
   0.58612989  0.58586309  0.53539844
   0.41716972  0.62510396  0.59765507
   0.54578900  0.38480499  0.59843371
   0.49587174  0.47835195  0.61775823
   0.50818919  0.66125964  0.55042327
   0.43132544  0.54603897  0.67167470
   0.59877036  0.36610772  0.50253092
   0.43733549  0.38706888  0.59805736
   0.55854353  0.47429769  0.51882322
   0.47481944  0.55463823  0.53549732
   0.62880938  0.44532352  0.43117427
   0.60767117  0.55110707  0.43215578
   0.49906778  0.52279445  0.43376826
   0.38762852  0.48381665  0.59265595
   0.45136011  0.44770845  0.50883250
   0.54411835  0.58469395  0.34946997
   0.56194528  0.47953520  0.35231316
   0.52546538  0.40961895  0.43013390
   0.44559061  0.34205661  0.41417029
   0.49187975  0.34515019  0.51271394
   0.33245143  0.56599566  0.63490273
   0.53147749  0.62975820  0.44973291
   0.48108225  0.40867591  0.33133966
   0.35524203  0.56593188  0.52912657
   0.42385259  0.63762146  0.48360306
   0.44718078  0.61756777  0.37951928
   0.38733432  0.54425023  0.42854715
   0.45458438  0.51677834  0.33540953
   0.34631632  0.46434656  0.49188886
   0.41140532  0.44276614  0.40558972
 
 position of ions in cartesian coordinates  (Angst):
  14.47261252  9.43453148 13.14552741
  13.46419184 11.49559686 13.79832410
  11.72033759 13.18048388 14.12544371
  14.87784822 11.36825460 11.64629571
  15.74177617  9.07501281 11.16783610
  13.15346981 13.14748249 12.01499418
   9.36179746 14.02809549 13.41210891
  12.24817102  8.63549344 13.42958254
  11.12796681 10.73480135 13.86324835
  11.40438541 14.83947306 12.35216970
   9.67946909 12.25378065 15.07319971
  13.43713738  8.21590389 11.27740693
   9.81434194  8.68629789 13.42113679
  12.53439824 10.64381881 11.64302602
  10.65552751 12.44675854 12.01721317
  14.11124963  9.99360308  9.67607665
  13.63688241 12.36751500  9.69810293
  11.19968985 11.73214527  9.73428895
   8.69885690 10.85743588 13.29992256
  10.12907153 10.04712382 11.41882208
  12.21067960 13.12124556  7.84253248
  12.61073766 10.76135492  7.90633713
  11.79208419  9.19234897  9.65272948
   9.99959691  7.67616764  9.29448660
  11.03838168  7.74559135 11.50592632
   7.46061568 12.70163313 14.24799184
  11.92700328 14.13254231 10.09255517
  10.79607261  9.17118601  7.43566620
   7.97206455 12.70020182 11.87424577
   9.51176922 14.30900346 10.85264266
  10.03528226 13.85897419  8.51687566
   8.69225469 12.21363915  9.61712087
  10.20142808 11.59713642  7.52699905
   7.77176073 10.42050331 11.03858612
   9.23243730  9.93621236  9.10192814
 


--------------------------------------------------------------------------------------------------------


 use parallel FFT for orbitals z direction half grid
 k-point  1 :   0.0000 0.0000 0.0000  plane waves:   65314

 maximum and minimum number of plane-waves per node :      5942     5936

 maximum number of plane-waves:     65314
 maximum index in each direction: 
   IXMAX=   31   IYMAX=   31   IZMAX=   31
   IXMIN=  -31   IYMIN=  -31   IZMIN=    0


 parallel 3D FFT for wavefunctions:
    minimum data exchange during FFTs selected (reduces bandwidth)
 parallel 3D FFT for charge:
    minimum data exchange during FFTs selected (reduces bandwidth)


 total amount of memory used by VASP MPI-rank0    75738. kBytes
=======================================================================

   base      :      30000. kBytes
   nonl-proj :       4181. kBytes
   fftplans  :       7877. kBytes
   grid      :      20041. kBytes
   one-center:         62. kBytes
   wavefun   :      13577. kBytes
 
     INWAV:  cpu time    0.0000: real time    0.0002
 Broyden mixing: mesh for mixing (old mesh)
   NGX = 63   NGY = 63   NGZ = 63
  (NGX  =192   NGY  =192   NGZ  =192)
  gives a total of 250047 points

 initial charge density was supplied:
 charge density of overlapping atoms calculated
 number of electron     385.0000000 magnetization     105.0000000
 keeping initial charge density in first step


--------------------------------------------------------------------------------------------------------


 Maximum index for augmentation-charges          202 (set IRDMAX)


--------------------------------------------------------------------------------------------------------


 First call to EWALD:  gamma=   0.079
 Maximum number of real-space cells 3x 3x 3
 Maximum number of reciprocal cells 3x 3x 3

    FEWALD:  cpu time    0.0000: real time    0.0016


--------------------------------------- Iteration      1(   1)  ---------------------------------------


    POTLOK:  cpu time    0.3440: real time    0.3653
    SETDIJ:  cpu time    0.0080: real time    0.0079
     EDDAV:  cpu time    6.6720: real time    6.6766
       DOS:  cpu time    0.0000: real time    0.0003
    --------------------------------------------
      LOOP:  cpu time    7.0240: real time    7.0501

 eigenvalue-minimisations  :  1160
 total energy-change (2. order) : 0.2507471E+04  (-0.8659708E+04)
 number of electron     385.0000000 magnetization     105.0000000
 augmentation part      385.0000000 magnetization     105.0000000

 Free energy of the ion-electron system (eV)
  ---------------------------------------------------
  alpha Z        PSCENC =        79.27001166
  Ewald energy   TEWEN  =    116768.96107692
  -Hartree energ DENC   =   -161189.88724079
  -exchange      EXHF   =         0.00000000
  -V(xc)+E(xc)   XCENC  =      1614.85284655
  PAW double counting   =     42952.60129310   -46651.35568999
  entropy T*S    EENTRO =        -0.00000000
  eigenvalues    EBANDS =       250.28330705
  atomic energy  EATOM  =     48682.74546302
  Solvation  Ediel_sol  =         0.00000000
  ---------------------------------------------------
  free energy    TOTEN  =      2507.47106753 eV

  energy without entropy =     2507.47106753  energy(sigma->0) =     2507.47106753


--------------------------------------------------------------------------------------------------------




--------------------------------------- Iteration      1(   2)  ---------------------------------------


     EDDAV:  cpu time    6.7400: real time    6.7483
       DOS:  cpu time    0.0000: real time    0.0003
    --------------------------------------------
      LOOP:  cpu time    6.7400: real time    6.7486

 eigenvalue-minimisations  :  1176
 total energy-change (2. order) :-0.2401472E+04  (-0.2179501E+04)
 number of electron     385.0000000 magnetization     105.0000000
 augmentation part      385.0000000 magnetization     105.0000000

 Free energy of the ion-electron system (eV)
  ---------------------------------------------------
  alpha Z        PSCENC =        79.27001166
  Ewald energy   TEWEN  =    116768.96107692
  -Hartree energ DENC   =   -161189.88724079
  -exchange      EXHF   =         0.00000000
  -V(xc)+E(xc)   XCENC  =      1614.85284655
  PAW double counting   =     42952.60129310   -46651.35568999
  entropy T*S    EENTRO =         0.00000000
  eigenvalues    EBANDS =     -2151.18846884
  atomic energy  EATOM  =     48682.74546302
  Solvation  Ediel_sol  =         0.00000000
  ---------------------------------------------------
  free energy    TOTEN  =       105.99929163 eV

  energy without entropy =      105.99929163  energy(sigma->0) =      105.99929163


--------------------------------------------------------------------------------------------------------




--------------------------------------- Iteration      1(   3)  ---------------------------------------


     EDDAV:  cpu time    7.7960: real time    7.8084
       DOS:  cpu time    0.0000: real time    0.0003
    --------------------------------------------
      LOOP:  cpu time    7.7960: real time    7.8088

 eigenvalue-minimisations  :  1416
 total energy-change (2. order) :-0.1692176E+03  (-0.1591460E+03)
 number of electron     385.0000000 magnetization     105.0000000
 augmentation part      385.0000000 magnetization     105.0000000

 Free energy of the ion-electron system (eV)
  ---------------------------------------------------
  alpha Z        PSCENC =        79.27001166
  Ewald energy   TEWEN  =    116768.96107692
  -Hartree energ DENC   =   -161189.88724079
  -exchange      EXHF   =         0.00000000
  -V(xc)+E(xc)   XCENC  =      1614.85284655
  PAW double counting   =     42952.60129310   -46651.35568999
  entropy T*S    EENTRO =         0.00000000
  eigenvalues    EBANDS =     -2320.40603538
  atomic energy  EATOM  =     48682.74546302
  Solvation  Ediel_sol  =         0.00000000
  ---------------------------------------------------
  free energy    TOTEN  =       -63.21827491 eV

  energy without entropy =      -63.21827491  energy(sigma->0) =      -63.21827491


--------------------------------------------------------------------------------------------------------




--------------------------------------- Iteration      1(   4)  ---------------------------------------


     EDDAV:  cpu time    7.8800: real time    7.8935
       DOS:  cpu time    0.0040: real time    0.0004
    --------------------------------------------
      LOOP:  cpu time    7.8840: real time    7.8939

 eigenvalue-minimisations  :  1432
 total energy-change (2. order) :-0.9618569E+01  (-0.9263284E+01)
 number of electron     385.0000000 magnetization     105.0000000
 augmentation part      385.0000000 magnetization     105.0000000

 Free energy of the ion-electron system (eV)
  ---------------------------------------------------
  alpha Z        PSCENC =        79.27001166
  Ewald energy   TEWEN  =    116768.96107692
  -Hartree energ DENC   =   -161189.88724079
  -exchange      EXHF   =         0.00000000
  -V(xc)+E(xc)   XCENC  =      1614.85284655
  PAW double counting   =     42952.60129310   -46651.35568999
  entropy T*S    EENTRO =         0.00000000
  eigenvalues    EBANDS =     -2330.02460474
  atomic energy  EATOM  =     48682.74546302
  Solvation  Ediel_sol  =         0.00000000
  ---------------------------------------------------
  free energy    TOTEN  =       -72.83684427 eV

  energy without entropy =      -72.83684427  energy(sigma->0) =      -72.83684427


--------------------------------------------------------------------------------------------------------




--------------------------------------- Iteration      1(   5)  ---------------------------------------


     EDDAV:  cpu time    7.9000: real time    7.9138
       DOS:  cpu time    0.0000: real time    0.0006
    CHARGE:  cpu time    0.1560: real time    0.1578
    MIXING:  cpu time    0.0080: real time    0.0093
    --------------------------------------------
      LOOP:  cpu time    8.0640: real time    8.0815

 eigenvalue-minimisations  :  1432
 total energy-change (2. order) :-0.3398745E+00  (-0.3388311E+00)
 number of electron     384.9999716 magnetization      95.6953404
 augmentation part      225.2738494 magnetization      89.9609683

 Broyden mixing:
  rms(total) = 0.10368E+02    rms(broyden)= 0.10366E+02
  rms(prec ) = 0.10505E+02
  weight for this iteration     100.00

 Free energy of the ion-electron system (eV)
  ---------------------------------------------------
  alpha Z        PSCENC =        79.27001166
  Ewald energy   TEWEN  =    116768.96107692
  -Hartree energ DENC   =   -161189.88724079
  -exchange      EXHF   =         0.00000000
  -V(xc)+E(xc)   XCENC  =      1614.85284655
  PAW double counting   =     42952.60129310   -46651.35568999
  entropy T*S    EENTRO =        -0.00000000
  eigenvalues    EBANDS =     -2330.36447928
  atomic energy  EATOM  =     48682.74546302
  Solvation  Ediel_sol  =         0.00000000
  ---------------------------------------------------
  free energy    TOTEN  =       -73.17671881 eV

  energy without entropy =      -73.17671881  energy(sigma->0) =      -73.17671881


--------------------------------------------------------------------------------------------------------




--------------------------------------- Iteration      1(   6)  ---------------------------------------


    POTLOK:  cpu time    0.3280: real time    0.3407
    SETDIJ:  cpu time    0.0080: real time    0.0080
     EDDAV:  cpu time    6.9040: real time    6.9014
       DOS:  cpu time    0.0000: real time    0.0007
    CHARGE:  cpu time    0.1600: real time    0.1623
    MIXING:  cpu time    0.0120: real time    0.0094
    --------------------------------------------
      LOOP:  cpu time    7.4120: real time    7.4225

 eigenvalue-minimisations  :  1204
 total energy-change (2. order) : 0.2191336E+03  (-0.1456277E+03)
 number of electron     384.9999665 magnetization      88.9309155
 augmentation part      266.2528621 magnetization      59.9525246

 Broyden mixing:
  rms(total) = 0.55098E+01    rms(broyden)= 0.55070E+01
  rms(prec ) = 0.57183E+01
  weight for this iteration     100.00

 eigenvalues of (default mixing * dielectric matrix)
  average eigenvalue GAMMA=   0.9495
  0.9495

 Free energy of the ion-electron system (eV)
  ---------------------------------------------------
  alpha Z        PSCENC =        79.27001166
  Ewald energy   TEWEN  =    116768.96107692
  -Hartree energ DENC   =   -160083.64103894
  -exchange      EXHF   =         0.00000000
  -V(xc)+E(xc)   XCENC  =      1724.13002734
  PAW double counting   =     42981.90595871   -46480.04995635
  entropy T*S    EENTRO =         0.00000000
  eigenvalues    EBANDS =     -3527.36462693
  atomic energy  EATOM  =     48682.74546302
  Solvation  Ediel_sol  =         0.00000000
  ---------------------------------------------------
  free energy    TOTEN  =       145.95691544 eV

  energy without entropy =      145.95691544  energy(sigma->0) =      145.95691544


--------------------------------------------------------------------------------------------------------




--------------------------------------- Iteration      1(   7)  ---------------------------------------


    POTLOK:  cpu time    0.3240: real time    0.3354
    SETDIJ:  cpu time    0.0080: real time    0.0078
     EDDAV:  cpu time    7.4080: real time    7.4062
       DOS:  cpu time    0.0000: real time    0.0007
    CHARGE:  cpu time    0.1600: real time    0.1587
    MIXING:  cpu time    0.0080: real time    0.0097
    --------------------------------------------
      LOOP:  cpu time    7.9080: real time    7.9185

 eigenvalue-minimisations  :  1316
 total energy-change (2. order) : 0.1705719E+02  (-0.5776246E+02)
 number of electron     384.9999671 magnetization      80.8336916
 augmentation part      249.7573731 magnetization      49.5461951

 Broyden mixing:
  rms(total) = 0.26134E+01    rms(broyden)= 0.26123E+01
  rms(prec ) = 0.26529E+01
  weight for this iteration     100.00

 eigenvalues of (default mixing * dielectric matrix)
  average eigenvalue GAMMA=   0.8681
  1.0212  0.7150

 Free energy of the ion-electron system (eV)
  ---------------------------------------------------
  alpha Z        PSCENC =        79.27001166
  Ewald energy   TEWEN  =    116768.96107692
  -Hartree energ DENC   =   -160954.31489787
  -exchange      EXHF   =         0.00000000
  -V(xc)+E(xc)   XCENC  =      1754.82978406
  PAW double counting   =     44323.46799794   -48129.06356193
  entropy T*S    EENTRO =         0.00000000
  eigenvalues    EBANDS =     -2362.88176409
  atomic energy  EATOM  =     48682.74546302
  Solvation  Ediel_sol  =         0.00000000
  ---------------------------------------------------
  free energy    TOTEN  =       163.01410970 eV

  energy without entropy =      163.01410970  energy(sigma->0) =      163.01410970


--------------------------------------------------------------------------------------------------------




--------------------------------------- Iteration      1(   8)  ---------------------------------------


    POTLOK:  cpu time    0.3320: real time    0.3355
    SETDIJ:  cpu time    0.0080: real time    0.0076
     EDDAV:  cpu time    8.1440: real time    8.1417
       DOS:  cpu time    0.0000: real time    0.0007
    CHARGE:  cpu time    0.1600: real time    0.1604
    MIXING:  cpu time    0.0120: real time    0.0103
    --------------------------------------------
      LOOP:  cpu time    8.6560: real time    8.6562

 eigenvalue-minimisations  :  1480
 total energy-change (2. order) : 0.8516742E+01  (-0.8740519E+01)
 number of electron     384.9999688 magnetization      75.8465517
 augmentation part      245.9680070 magnetization      42.5467451

 Broyden mixing:
  rms(total) = 0.23672E+01    rms(broyden)= 0.23666E+01
  rms(prec ) = 0.24423E+01
  weight for this iteration     100.00

 eigenvalues of (default mixing * dielectric matrix)
  average eigenvalue GAMMA=   0.7897
  1.0862  0.7290  0.5538

 Free energy of the ion-electron system (eV)
  ---------------------------------------------------
  alpha Z        PSCENC =        79.27001166
  Ewald energy   TEWEN  =    116768.96107692
  -Hartree energ DENC   =   -161153.31990824
  -exchange      EXHF   =         0.00000000
  -V(xc)+E(xc)   XCENC  =      1764.69903527
  PAW double counting   =     45122.93825439   -48955.29669701
  entropy T*S    EENTRO =         0.00000000
  eigenvalues    EBANDS =     -2138.46638475
  atomic energy  EATOM  =     48682.74546302
  Solvation  Ediel_sol  =         0.00000000
  ---------------------------------------------------
  free energy    TOTEN  =       171.53085127 eV

  energy without entropy =      171.53085127  energy(sigma->0) =      171.53085127


--------------------------------------------------------------------------------------------------------




--------------------------------------- Iteration      1(   9)  ---------------------------------------


    POTLOK:  cpu time    0.3240: real time    0.3415
    SETDIJ:  cpu time    0.0080: real time    0.0078
     EDDAV:  cpu time    7.7720: real time    7.7719
       DOS:  cpu time    0.0000: real time    0.0007
    CHARGE:  cpu time    0.1640: real time    0.1611
    MIXING:  cpu time    0.0080: real time    0.0105
    --------------------------------------------
      LOOP:  cpu time    8.2760: real time    8.2935

 eigenvalue-minimisations  :  1392
 total energy-change (2. order) :-0.1410834E+02  (-0.3045528E+01)
 number of electron     384.9999673 magnetization      62.7214543
 augmentation part      246.8223342 magnetization      31.3844624

 Broyden mixing:
  rms(total) = 0.17794E+01    rms(broyden)= 0.17789E+01
  rms(prec ) = 0.18103E+01
  weight for this iteration     100.00

 eigenvalues of (default mixing * dielectric matrix)
  average eigenvalue GAMMA=   0.9461
  1.6282  0.8671  0.8671  0.4219

 Free energy of the ion-electron system (eV)
  ---------------------------------------------------
  alpha Z        PSCENC =        79.27001166
  Ewald energy   TEWEN  =    116768.96107692
  -Hartree energ DENC   =   -161117.18849599
  -exchange      EXHF   =         0.00000000
  -V(xc)+E(xc)   XCENC  =      1751.14144403
  PAW double counting   =     45326.36711686   -49142.75590629
  entropy T*S    EENTRO =         0.00000000
  eigenvalues    EBANDS =     -2191.11819647
  atomic energy  EATOM  =     48682.74546302
  Solvation  Ediel_sol  =         0.00000000
  ---------------------------------------------------
  free energy    TOTEN  =       157.42251375 eV

  energy without entropy =      157.42251375  energy(sigma->0) =      157.42251375


--------------------------------------------------------------------------------------------------------




--------------------------------------- Iteration      1(  10)  ---------------------------------------


    POTLOK:  cpu time    0.3280: real time    0.3451
    SETDIJ:  cpu time    0.0080: real time    0.0075
     EDDAV:  cpu time    9.5840: real time    9.5853
       DOS:  cpu time    0.0040: real time    0.0006
    CHARGE:  cpu time    0.1600: real time    0.1602
    MIXING:  cpu time    0.0080: real time    0.0109
    --------------------------------------------
      LOOP:  cpu time   10.0920: real time   10.1096

 eigenvalue-minimisations  :  1800
 total energy-change (2. order) :-0.5568950E+02  (-0.2811422E+01)
 number of electron     384.9999682 magnetization      52.3406422
 augmentation part      248.3870411 magnetization      25.4718197

 Broyden mixing:
  rms(total) = 0.14412E+01    rms(broyden)= 0.14404E+01
  rms(prec ) = 0.14793E+01
  weight for this iteration     100.00

 eigenvalues of (default mixing * dielectric matrix)
  average eigenvalue GAMMA=   1.0728
  2.6075  1.0637  0.7193  0.5574  0.4163

 Free energy of the ion-electron system (eV)
  ---------------------------------------------------
  alpha Z        PSCENC =        79.27001166
  Ewald energy   TEWEN  =    116768.96107692
  -Hartree energ DENC   =   -161123.58093374
  -exchange      EXHF   =         0.00000000
  -V(xc)+E(xc)   XCENC  =      1705.20502107
  PAW double counting   =     45708.66600489   -49490.65071723
  entropy T*S    EENTRO =         0.00000000
  eigenvalues    EBANDS =     -2228.88291604
  atomic energy  EATOM  =     48682.74546302
  Solvation  Ediel_sol  =         0.00000000
  ---------------------------------------------------
  free energy    TOTEN  =       101.73301057 eV

  energy without entropy =      101.73301057  energy(sigma->0) =      101.73301057


--------------------------------------------------------------------------------------------------------




--------------------------------------- Iteration      1(  11)  ---------------------------------------


    POTLOK:  cpu time    0.3280: real time    0.3394
    SETDIJ:  cpu time    0.0080: real time    0.0076
     EDDAV:  cpu time    8.4560: real time    8.4540
       DOS:  cpu time    0.0000: real time    0.0007
    CHARGE:  cpu time    0.1600: real time    0.1596
    MIXING:  cpu time    0.0120: real time    0.0114
    --------------------------------------------
      LOOP:  cpu time    8.9640: real time    8.9727

 eigenvalue-minimisations  :  1544
 total energy-change (2. order) :-0.2670852E+02  (-0.2293502E+01)
 number of electron     384.9999683 magnetization      46.3441369
 augmentation part      248.6472628 magnetization      21.3545952

 Broyden mixing:
  rms(total) = 0.10450E+01    rms(broyden)= 0.10447E+01
  rms(prec ) = 0.10625E+01
  weight for this iteration     100.00

 eigenvalues of (default mixing * dielectric matrix)
  average eigenvalue GAMMA=   1.0528
  2.8897  1.2377  0.6285  0.6285  0.5317  0.4006

 Free energy of the ion-electron system (eV)
  ---------------------------------------------------
  alpha Z        PSCENC =        79.27001166
  Ewald energy   TEWEN  =    116768.96107692
  -Hartree energ DENC   =   -161162.57887459
  -exchange      EXHF   =         0.00000000
  -V(xc)+E(xc)   XCENC  =      1686.08215585
  PAW double counting   =     45904.63348929   -49672.11098440
  entropy T*S    EENTRO =        -0.00000000
  eigenvalues    EBANDS =     -2211.97784535
  atomic energy  EATOM  =     48682.74546302
  Solvation  Ediel_sol  =         0.00000000
  ---------------------------------------------------
  free energy    TOTEN  =        75.02449241 eV

  energy without entropy =       75.02449241  energy(sigma->0) =       75.02449241


--------------------------------------------------------------------------------------------------------




--------------------------------------- Iteration      1(  12)  ---------------------------------------


    POTLOK:  cpu time    0.3360: real time    0.3425
    SETDIJ:  cpu time    0.0080: real time    0.0076
     EDDAV:  cpu time    7.9960: real time    7.9950
       DOS:  cpu time    0.0000: real time    0.0008
    CHARGE:  cpu time    0.1560: real time    0.1580
    MIXING:  cpu time    0.0120: real time    0.0118
    --------------------------------------------
      LOOP:  cpu time    8.5080: real time    8.5157

 eigenvalue-minimisations  :  1440
 total energy-change (2. order) :-0.2798251E+02  (-0.1710640E+01)
 number of electron     384.9999684 magnetization      36.4765051
 augmentation part      248.1465986 magnetization      14.9779148

 Broyden mixing:
  rms(total) = 0.83235E+00    rms(broyden)= 0.83203E+00
  rms(prec ) = 0.84678E+00
  weight for this iteration     100.00

 eigenvalues of (default mixing * dielectric matrix)
  average eigenvalue GAMMA=   1.2037
  3.6920  1.5666  0.8167  0.8167  0.6838  0.4252  0.4252

 Free energy of the ion-electron system (eV)
  ---------------------------------------------------
  alpha Z        PSCENC =        79.27001166
  Ewald energy   TEWEN  =    116768.96107692
  -Hartree energ DENC   =   -161170.88781055
  -exchange      EXHF   =         0.00000000
  -V(xc)+E(xc)   XCENC  =      1666.09766740
  PAW double counting   =     45821.38180345   -49586.63109546
  entropy T*S    EENTRO =        -0.00000000
  eigenvalues    EBANDS =     -2213.89513715
  atomic energy  EATOM  =     48682.74546302
  Solvation  Ediel_sol  =         0.00000000
  ---------------------------------------------------
  free energy    TOTEN  =        47.04197929 eV

  energy without entropy =       47.04197929  energy(sigma->0) =       47.04197929


--------------------------------------------------------------------------------------------------------




--------------------------------------- Iteration      1(  13)  ---------------------------------------


    POTLOK:  cpu time    0.3280: real time    0.3398
    SETDIJ:  cpu time    0.0080: real time    0.0074
     EDDAV:  cpu time    8.0160: real time    8.0171
       DOS:  cpu time    0.0040: real time    0.0007
    CHARGE:  cpu time    0.1560: real time    0.1591
    MIXING:  cpu time    0.0120: real time    0.0122
    --------------------------------------------
      LOOP:  cpu time    8.5240: real time    8.5363

 eigenvalue-minimisations  :  1440
 total energy-change (2. order) :-0.4666404E+02  (-0.3233196E+01)
 number of electron     384.9999692 magnetization      27.2219814
 augmentation part      246.5169005 magnetization      11.0810169

 Broyden mixing:
  rms(total) = 0.75860E+00    rms(broyden)= 0.75775E+00
  rms(prec ) = 0.78350E+00
  weight for this iteration     100.00

 eigenvalues of (default mixing * dielectric matrix)
  average eigenvalue GAMMA=   1.2743
  4.7882  1.7132  1.0029  0.7102  0.7102  0.4419  0.4419  0.3854

 Free energy of the ion-electron system (eV)
  ---------------------------------------------------
  alpha Z        PSCENC =        79.27001166
  Ewald energy   TEWEN  =    116768.96107692
  -Hartree energ DENC   =   -161208.71534077
  -exchange      EXHF   =         0.00000000
  -V(xc)+E(xc)   XCENC  =      1632.68090977
  PAW double counting   =     45723.88821091   -49493.25479066
  entropy T*S    EENTRO =         0.00000000
  eigenvalues    EBANDS =     -2185.19760330
  atomic energy  EATOM  =     48682.74546302
  Solvation  Ediel_sol  =         0.00000000
  ---------------------------------------------------
  free energy    TOTEN  =         0.37793756 eV

  energy without entropy =        0.37793756  energy(sigma->0) =        0.37793756


--------------------------------------------------------------------------------------------------------




--------------------------------------- Iteration      1(  14)  ---------------------------------------


    POTLOK:  cpu time    0.3280: real time    0.3386
    SETDIJ:  cpu time    0.0080: real time    0.0076
     EDDAV:  cpu time    8.3680: real time    8.3664
       DOS:  cpu time    0.0000: real time    0.0006
    CHARGE:  cpu time    0.1600: real time    0.1584
    MIXING:  cpu time    0.0120: real time    0.0129
    --------------------------------------------
      LOOP:  cpu time    8.8760: real time    8.8845

 eigenvalue-minimisations  :  1520
 total energy-change (2. order) :-0.3196484E+02  (-0.2779053E+01)
 number of electron     384.9999689 magnetization      19.9998063
 augmentation part      245.6966908 magnetization       8.9047032

 Broyden mixing:
  rms(total) = 0.60274E+00    rms(broyden)= 0.60193E+00
  rms(prec ) = 0.61690E+00
  weight for this iteration     100.00

 eigenvalues of (default mixing * dielectric matrix)
  average eigenvalue GAMMA=   1.2859
  5.4594  1.9018  1.0918  0.6622  0.6622  0.5264  0.5264  0.3778  0.3653

 Free energy of the ion-electron system (eV)
  ---------------------------------------------------
  alpha Z        PSCENC =        79.27001166
  Ewald energy   TEWEN  =    116768.96107692
  -Hartree energ DENC   =   -161225.80404978
  -exchange      EXHF   =         0.00000000
  -V(xc)+E(xc)   XCENC  =      1609.83975490
  PAW double counting   =     45688.50546217   -49458.07735378
  entropy T*S    EENTRO =         0.00000000
  eigenvalues    EBANDS =     -2177.02726832
  atomic energy  EATOM  =     48682.74546302
  Solvation  Ediel_sol  =         0.00000000
  ---------------------------------------------------
  free energy    TOTEN  =       -31.58690321 eV

  energy without entropy =      -31.58690321  energy(sigma->0) =      -31.58690321


--------------------------------------------------------------------------------------------------------




--------------------------------------- Iteration      1(  15)  ---------------------------------------


    POTLOK:  cpu time    0.3280: real time    0.3382
    SETDIJ:  cpu time    0.0080: real time    0.0076
     EDDAV:  cpu time    7.9800: real time    7.9789
       DOS:  cpu time    0.0000: real time    0.0008
    CHARGE:  cpu time    0.1600: real time    0.1593
    MIXING:  cpu time    0.0120: real time    0.0134
    --------------------------------------------
      LOOP:  cpu time    8.4880: real time    8.4981

 eigenvalue-minimisations  :  1432
 total energy-change (2. order) :-0.2169166E+02  (-0.1916991E+01)
 number of electron     384.9999697 magnetization      15.2963326
 augmentation part      245.6237118 magnetization       7.6105229

 Broyden mixing:
  rms(total) = 0.47646E+00    rms(broyden)= 0.47584E+00
  rms(prec ) = 0.49084E+00
  weight for this iteration     100.00

 eigenvalues of (default mixing * dielectric matrix)
  average eigenvalue GAMMA=   1.3274
  6.0942  2.2077  0.9484  0.7250  0.7250  0.6768  0.6768  0.4308  0.4308  0.3582

 Free energy of the ion-electron system (eV)
  ---------------------------------------------------
  alpha Z        PSCENC =        79.27001166
  Ewald energy   TEWEN  =    116768.96107692
  -Hartree energ DENC   =   -161216.93853678
  -exchange      EXHF   =         0.00000000
  -V(xc)+E(xc)   XCENC  =      1593.79053631
  PAW double counting   =     45630.09377159   -49394.28794093
  entropy T*S    EENTRO =        -0.00000000
  eigenvalues    EBANDS =     -2196.91294905
  atomic energy  EATOM  =     48682.74546302
  Solvation  Ediel_sol  =         0.00000000
  ---------------------------------------------------
  free energy    TOTEN  =       -53.27856726 eV

  energy without entropy =      -53.27856726  energy(sigma->0) =      -53.27856726


--------------------------------------------------------------------------------------------------------




--------------------------------------- Iteration      1(  16)  ---------------------------------------


    POTLOK:  cpu time    0.3280: real time    0.3397
    SETDIJ:  cpu time    0.0080: real time    0.0076
     EDDAV:  cpu time    8.4520: real time    8.4523
       DOS:  cpu time    0.0040: real time    0.0007
    CHARGE:  cpu time    0.1600: real time    0.1606
    MIXING:  cpu time    0.0120: real time    0.0140
    --------------------------------------------
      LOOP:  cpu time    8.9640: real time    8.9748

 eigenvalue-minimisations  :  1536
 total energy-change (2. order) :-0.1721988E+02  (-0.1336355E+01)
 number of electron     384.9999690 magnetization      11.6440992
 augmentation part      245.9082038 magnetization       7.1273232

 Broyden mixing:
  rms(total) = 0.39173E+00    rms(broyden)= 0.39109E+00
  rms(prec ) = 0.40741E+00
  weight for this iteration     100.00

 eigenvalues of (default mixing * dielectric matrix)
  average eigenvalue GAMMA=   1.3782
  6.8550  2.4889  0.9482  0.9482  0.8043  0.8043  0.6368  0.4673  0.4673  0.4016
  0.3379

 Free energy of the ion-electron system (eV)
  ---------------------------------------------------
  alpha Z        PSCENC =        79.27001166
  Ewald energy   TEWEN  =    116768.96107692
  -Hartree energ DENC   =   -161180.33620071
  -exchange      EXHF   =         0.00000000
  -V(xc)+E(xc)   XCENC  =      1580.23467766
  PAW double counting   =     45523.15439300   -49278.95261464
  entropy T*S    EENTRO =         0.00000000
  eigenvalues    EBANDS =     -2245.57525209
  atomic energy  EATOM  =     48682.74546302
  Solvation  Ediel_sol  =         0.00000000
  ---------------------------------------------------
  free energy    TOTEN  =       -70.49844518 eV

  energy without entropy =      -70.49844518  energy(sigma->0) =      -70.49844518


--------------------------------------------------------------------------------------------------------




--------------------------------------- Iteration      1(  17)  ---------------------------------------


    POTLOK:  cpu time    0.3280: real time    0.3373
    SETDIJ:  cpu time    0.0080: real time    0.0077
     EDDAV:  cpu time    8.2480: real time    8.2492
       DOS:  cpu time    0.0040: real time    0.0006
    CHARGE:  cpu time    0.1560: real time    0.1582
    MIXING:  cpu time    0.0160: real time    0.0145
    --------------------------------------------
      LOOP:  cpu time    8.7600: real time    8.7675

 eigenvalue-minimisations  :  1488
 total energy-change (2. order) :-0.1020048E+02  (-0.6049288E+00)
 number of electron     384.9999696 magnetization       8.1727318
 augmentation part      246.3976674 magnetization       6.3197850

 Broyden mixing:
  rms(total) = 0.29391E+00    rms(broyden)= 0.29326E+00
  rms(prec ) = 0.30254E+00
  weight for this iteration     100.00

 eigenvalues of (default mixing * dielectric matrix)
  average eigenvalue GAMMA=   1.4216
  7.8114  2.5843  1.0624  1.0624  0.9234  0.8117  0.5990  0.5990  0.4640  0.4249
  0.3585  0.3585

 Free energy of the ion-electron system (eV)
  ---------------------------------------------------
  alpha Z        PSCENC =        79.27001166
  Ewald energy   TEWEN  =    116768.96107692
  -Hartree energ DENC   =   -161142.81176998
  -exchange      EXHF   =         0.00000000
  -V(xc)+E(xc)   XCENC  =      1571.44115553
  PAW double counting   =     45429.52418874   -49179.82857708
  entropy T*S    EENTRO =         0.00000000
  eigenvalues    EBANDS =     -2290.00047286
  atomic energy  EATOM  =     48682.74546302
  Solvation  Ediel_sol  =         0.00000000
  ---------------------------------------------------
  free energy    TOTEN  =       -80.69892404 eV

  energy without entropy =      -80.69892404  energy(sigma->0) =      -80.69892404


--------------------------------------------------------------------------------------------------------




--------------------------------------- Iteration      1(  18)  ---------------------------------------


    POTLOK:  cpu time    0.3280: real time    0.3399
    SETDIJ:  cpu time    0.0080: real time    0.0077
     EDDAV:  cpu time    8.1400: real time    8.1399
       DOS:  cpu time    0.0000: real time    0.0006
    CHARGE:  cpu time    0.1600: real time    0.1594
    MIXING:  cpu time    0.0120: real time    0.0154
    --------------------------------------------
      LOOP:  cpu time    8.6480: real time    8.6629

 eigenvalue-minimisations  :  1464
 total energy-change (2. order) :-0.5943251E+01  (-0.2265064E+00)
 number of electron     384.9999692 magnetization       6.6932627
 augmentation part      246.4416147 magnetization       5.4063788

 Broyden mixing:
  rms(total) = 0.21736E+00    rms(broyden)= 0.21727E+00
  rms(prec ) = 0.22490E+00
  weight for this iteration     100.00

 eigenvalues of (default mixing * dielectric matrix)
  average eigenvalue GAMMA=   1.4547
  8.5078  2.7810  1.1130  1.1130  0.9559  0.9559  0.6706  0.6706  0.5512  0.4624
  0.4308  0.3673  0.3310

 Free energy of the ion-electron system (eV)
  ---------------------------------------------------
  alpha Z        PSCENC =        79.27001166
  Ewald energy   TEWEN  =    116768.96107692
  -Hartree energ DENC   =   -161133.88965643
  -exchange      EXHF   =         0.00000000
  -V(xc)+E(xc)   XCENC  =      1566.40846853
  PAW double counting   =     45414.54303367   -49166.31006067
  entropy T*S    EENTRO =        -0.00000000
  eigenvalues    EBANDS =     -2298.37051140
  atomic energy  EATOM  =     48682.74546302
  Solvation  Ediel_sol  =         0.00000000
  ---------------------------------------------------
  free energy    TOTEN  =       -86.64217469 eV

  energy without entropy =      -86.64217469  energy(sigma->0) =      -86.64217469


--------------------------------------------------------------------------------------------------------




--------------------------------------- Iteration      1(  19)  ---------------------------------------


    POTLOK:  cpu time    0.3360: real time    0.3398
    SETDIJ:  cpu time    0.0080: real time    0.0078
     EDDAV:  cpu time    8.0400: real time    8.0384
       DOS:  cpu time    0.0000: real time    0.0006
    CHARGE:  cpu time    0.1560: real time    0.1576
    MIXING:  cpu time    0.0200: real time    0.0160
    --------------------------------------------
      LOOP:  cpu time    8.5600: real time    8.5603

 eigenvalue-minimisations  :  1440
 total energy-change (2. order) :-0.4479842E+01  (-0.9385290E-01)
 number of electron     384.9999694 magnetization       5.1036168
 augmentation part      246.4385557 magnetization       4.0414731

 Broyden mixing:
  rms(total) = 0.16275E+00    rms(broyden)= 0.16271E+00
  rms(prec ) = 0.16977E+00
  weight for this iteration     100.00

 eigenvalues of (default mixing * dielectric matrix)
  average eigenvalue GAMMA=   1.4838
  9.0971  3.0297  1.2784  1.2784  0.9923  0.9923  0.6808  0.6808  0.5898  0.5898
  0.4329  0.4329  0.3660  0.3313

 Free energy of the ion-electron system (eV)
  ---------------------------------------------------
  alpha Z        PSCENC =        79.27001166
  Ewald energy   TEWEN  =    116768.96107692
  -Hartree energ DENC   =   -161116.27619525
  -exchange      EXHF   =         0.00000000
  -V(xc)+E(xc)   XCENC  =      1562.25982492
  PAW double counting   =     45390.76440770   -49144.40087892
  entropy T*S    EENTRO =         0.00000000
  eigenvalues    EBANDS =     -2314.44572637
  atomic energy  EATOM  =     48682.74546302
  Solvation  Ediel_sol  =         0.00000000
  ---------------------------------------------------
  free energy    TOTEN  =       -91.12201631 eV

  energy without entropy =      -91.12201631  energy(sigma->0) =      -91.12201631


--------------------------------------------------------------------------------------------------------




--------------------------------------- Iteration      1(  20)  ---------------------------------------


    POTLOK:  cpu time    0.3240: real time    0.3355
    SETDIJ:  cpu time    0.0080: real time    0.0076
     EDDAV:  cpu time    8.1720: real time    8.1704
       DOS:  cpu time    0.0000: real time    0.0007
    CHARGE:  cpu time    0.1600: real time    0.1590
    MIXING:  cpu time    0.0160: real time    0.0168
    --------------------------------------------
      LOOP:  cpu time    8.6800: real time    8.6899

 eigenvalue-minimisations  :  1472
 total energy-change (2. order) :-0.4437950E+01  (-0.6407187E-01)
 number of electron     384.9999693 magnetization       3.0530218
 augmentation part      246.4977975 magnetization       2.1479568

 Broyden mixing:
  rms(total) = 0.10793E+00    rms(broyden)= 0.10790E+00
  rms(prec ) = 0.11298E+00
  weight for this iteration     100.00

 eigenvalues of (default mixing * dielectric matrix)
  average eigenvalue GAMMA=   1.5413
  9.7398  3.4072  1.8613  1.0695  1.0695  0.9789  0.9789  0.6790  0.6790  0.6268
  0.4563  0.4563  0.4218  0.3629  0.3318

 Free energy of the ion-electron system (eV)
  ---------------------------------------------------
  alpha Z        PSCENC =        79.27001166
  Ewald energy   TEWEN  =    116768.96107692
  -Hartree energ DENC   =   -161089.93460543
  -exchange      EXHF   =         0.00000000
  -V(xc)+E(xc)   XCENC  =      1557.81217977
  PAW double counting   =     45359.62809915   -49114.93710282
  entropy T*S    EENTRO =         0.00000000
  eigenvalues    EBANDS =     -2339.10508809
  atomic energy  EATOM  =     48682.74546302
  Solvation  Ediel_sol  =         0.00000000
  ---------------------------------------------------
  free energy    TOTEN  =       -95.55996583 eV

  energy without entropy =      -95.55996583  energy(sigma->0) =      -95.55996583


--------------------------------------------------------------------------------------------------------




--------------------------------------- Iteration      1(  21)  ---------------------------------------


    POTLOK:  cpu time    0.3280: real time    0.3411
    SETDIJ:  cpu time    0.0080: real time    0.0077
     EDDAV:  cpu time    8.4160: real time    8.4136
       DOS:  cpu time    0.0000: real time    0.0007
    CHARGE:  cpu time    0.1560: real time    0.1585
    MIXING:  cpu time    0.0200: real time    0.0173
    --------------------------------------------
      LOOP:  cpu time    8.9280: real time    8.9389

 eigenvalue-minimisations  :  1528
 total energy-change (2. order) :-0.3126385E+01  (-0.3199831E-01)
 number of electron     384.9999694 magnetization       2.3252160
 augmentation part      246.5214740 magnetization       1.5089107

 Broyden mixing:
  rms(total) = 0.68448E-01    rms(broyden)= 0.68424E-01
  rms(prec ) = 0.72639E-01
  weight for this iteration     100.00

 eigenvalues of (default mixing * dielectric matrix)
  average eigenvalue GAMMA=   1.5831
 10.1466  3.8323  2.2515  1.2407  1.2407  0.9513  0.9513  0.7727  0.6648  0.6648
  0.6133  0.4446  0.4446  0.4126  0.3667  0.3308

 Free energy of the ion-electron system (eV)
  ---------------------------------------------------
  alpha Z        PSCENC =        79.27001166
  Ewald energy   TEWEN  =    116768.96107692
  -Hartree energ DENC   =   -161068.08539721
  -exchange      EXHF   =         0.00000000
  -V(xc)+E(xc)   XCENC  =      1554.56659439
  PAW double counting   =     45358.04113792   -49115.33820167
  entropy T*S    EENTRO =         0.00000000
  eigenvalues    EBANDS =     -2358.84703576
  atomic energy  EATOM  =     48682.74546302
  Solvation  Ediel_sol  =         0.00000000
  ---------------------------------------------------
  free energy    TOTEN  =       -98.68635072 eV

  energy without entropy =      -98.68635072  energy(sigma->0) =      -98.68635072


--------------------------------------------------------------------------------------------------------




--------------------------------------- Iteration      1(  22)  ---------------------------------------


    POTLOK:  cpu time    0.3280: real time    0.3387
    SETDIJ:  cpu time    0.0080: real time    0.0079
     EDDAV:  cpu time    7.8480: real time    7.8495
       DOS:  cpu time    0.0000: real time    0.0008
    CHARGE:  cpu time    0.1600: real time    0.1592
    MIXING:  cpu time    0.0200: real time    0.0182
    --------------------------------------------
      LOOP:  cpu time    8.3640: real time    8.3742

 eigenvalue-minimisations  :  1400
 total energy-change (2. order) :-0.1317092E+01  (-0.7877215E-02)
 number of electron     384.9999694 magnetization       1.8872860
 augmentation part      246.4832750 magnetization       1.0602329

 Broyden mixing:
  rms(total) = 0.43384E-01    rms(broyden)= 0.43371E-01
  rms(prec ) = 0.47364E-01
  weight for this iteration     100.00

 eigenvalues of (default mixing * dielectric matrix)
  average eigenvalue GAMMA=   1.5923
 10.4365  4.2284  2.3631  1.1699  1.1699  1.1580  0.9846  0.9846  0.6643  0.6643
  0.6276  0.6276  0.4411  0.4411  0.4106  0.3673  0.3313

 Free energy of the ion-electron system (eV)
  ---------------------------------------------------
  alpha Z        PSCENC =        79.27001166
  Ewald energy   TEWEN  =    116768.96107692
  -Hartree energ DENC   =   -161055.79968939
  -exchange      EXHF   =         0.00000000
  -V(xc)+E(xc)   XCENC  =      1553.24551658
  PAW double counting   =     45364.82831287   -49123.20954457
  entropy T*S    EENTRO =         0.00000000
  eigenvalues    EBANDS =     -2370.04458932
  atomic energy  EATOM  =     48682.74546302
  Solvation  Ediel_sol  =         0.00000000
  ---------------------------------------------------
  free energy    TOTEN  =      -100.00344224 eV

  energy without entropy =     -100.00344224  energy(sigma->0) =     -100.00344224


--------------------------------------------------------------------------------------------------------




--------------------------------------- Iteration      1(  23)  ---------------------------------------


    POTLOK:  cpu time    0.3400: real time    0.3453
    SETDIJ:  cpu time    0.0080: real time    0.0077
     EDDAV:  cpu time    7.4480: real time    7.4467
       DOS:  cpu time    0.0000: real time    0.0007
    CHARGE:  cpu time    0.1600: real time    0.1603
    MIXING:  cpu time    0.0200: real time    0.0190
    --------------------------------------------
      LOOP:  cpu time    7.9760: real time    7.9797

 eigenvalue-minimisations  :  1308
 total energy-change (2. order) :-0.7524346E+00  (-0.3169191E-02)
 number of electron     384.9999694 magnetization       1.5260412
 augmentation part      246.4742090 magnetization       0.6994780

 Broyden mixing:
  rms(total) = 0.25513E-01    rms(broyden)= 0.25503E-01
  rms(prec ) = 0.28846E-01
  weight for this iteration     100.00

 eigenvalues of (default mixing * dielectric matrix)
  average eigenvalue GAMMA=   1.6126
 10.7124  4.6413  2.4482  1.7257  1.2084  1.2084  0.9557  0.9557  0.7294  0.6634
  0.6634  0.6442  0.4696  0.4440  0.4440  0.4145  0.3670  0.3312

 Free energy of the ion-electron system (eV)
  ---------------------------------------------------
  alpha Z        PSCENC =        79.27001166
  Ewald energy   TEWEN  =    116768.96107692
  -Hartree energ DENC   =   -161044.95046551
  -exchange      EXHF   =         0.00000000
  -V(xc)+E(xc)   XCENC  =      1552.45539342
  PAW double counting   =     45367.01491420   -49125.57260211
  entropy T*S    EENTRO =         0.00000000
  eigenvalues    EBANDS =     -2380.67966840
  atomic energy  EATOM  =     48682.74546302
  Solvation  Ediel_sol  =         0.00000000
  ---------------------------------------------------
  free energy    TOTEN  =      -100.75587680 eV

  energy without entropy =     -100.75587680  energy(sigma->0) =     -100.75587680


--------------------------------------------------------------------------------------------------------




--------------------------------------- Iteration      1(  24)  ---------------------------------------


    POTLOK:  cpu time    0.3280: real time    0.3478
    SETDIJ:  cpu time    0.0080: real time    0.0077
     EDDAV:  cpu time    8.5800: real time    8.5815
       DOS:  cpu time    0.0000: real time    0.0007
    CHARGE:  cpu time    0.1600: real time    0.1605
    MIXING:  cpu time    0.0200: real time    0.0198
    --------------------------------------------
      LOOP:  cpu time    9.0960: real time    9.1180

 eigenvalue-minimisations  :  1564
 total energy-change (2. order) :-0.4954193E+00  (-0.1249764E-02)
 number of electron     384.9999693 magnetization       1.3769238
 augmentation part      246.4929690 magnetization       0.5605616

 Broyden mixing:
  rms(total) = 0.14034E-01    rms(broyden)= 0.14026E-01
  rms(prec ) = 0.16589E-01
  weight for this iteration     100.00

 eigenvalues of (default mixing * dielectric matrix)
  average eigenvalue GAMMA=   1.6128
 10.8321  4.8485  2.7016  1.8726  1.1601  1.1601  0.9841  0.9841  0.9786  0.7404
  0.6617  0.6617  0.5959  0.3312  0.3670  0.4739  0.4399  0.4399  0.4103

 Free energy of the ion-electron system (eV)
  ---------------------------------------------------
  alpha Z        PSCENC =        79.27001166
  Ewald energy   TEWEN  =    116768.96107692
  -Hartree energ DENC   =   -161034.83649173
  -exchange      EXHF   =         0.00000000
  -V(xc)+E(xc)   XCENC  =      1551.89221422
  PAW double counting   =     45367.82133992   -49126.14480658
  entropy T*S    EENTRO =         0.00000000
  eigenvalues    EBANDS =     -2390.96010354
  atomic energy  EATOM  =     48682.74546302
  Solvation  Ediel_sol  =         0.00000000
  ---------------------------------------------------
  free energy    TOTEN  =      -101.25129611 eV

  energy without entropy =     -101.25129611  energy(sigma->0) =     -101.25129611


--------------------------------------------------------------------------------------------------------




--------------------------------------- Iteration      1(  25)  ---------------------------------------


    POTLOK:  cpu time    0.3280: real time    0.3379
    SETDIJ:  cpu time    0.0080: real time    0.0075
     EDDAV:  cpu time    7.9560: real time    7.9549
       DOS:  cpu time    0.0000: real time    0.0008
    CHARGE:  cpu time    0.1640: real time    0.1609
    MIXING:  cpu time    0.0200: real time    0.0211
    --------------------------------------------
      LOOP:  cpu time    8.4760: real time    8.4831

 eigenvalue-minimisations  :  1424
 total energy-change (2. order) :-0.2305876E+00  (-0.3699377E-03)
 number of electron     384.9999694 magnetization       1.2851298
 augmentation part      246.4888685 magnetization       0.4604513

 Broyden mixing:
  rms(total) = 0.94399E-02    rms(broyden)= 0.94368E-02
  rms(prec ) = 0.11593E-01
  weight for this iteration     100.00

 eigenvalues of (default mixing * dielectric matrix)
  average eigenvalue GAMMA=   1.6022
 10.8942  4.9552  2.8234  2.1594  1.2877  1.1334  1.1334  0.9666  0.9666  0.6596
  0.6596  0.7033  0.7033  0.5572  0.3312  0.3669  0.4481  0.4481  0.4142  0.4322

 Free energy of the ion-electron system (eV)
  ---------------------------------------------------
  alpha Z        PSCENC =        79.27001166
  Ewald energy   TEWEN  =    116768.96107692
  -Hartree energ DENC   =   -161029.96153062
  -exchange      EXHF   =         0.00000000
  -V(xc)+E(xc)   XCENC  =      1551.65091729
  PAW double counting   =     45373.52146604   -49131.79235225
  entropy T*S    EENTRO =         0.00000000
  eigenvalues    EBANDS =     -2395.87693579
  atomic energy  EATOM  =     48682.74546302
  Solvation  Ediel_sol  =         0.00000000
  ---------------------------------------------------
  free energy    TOTEN  =      -101.48188372 eV

  energy without entropy =     -101.48188372  energy(sigma->0) =     -101.48188372


--------------------------------------------------------------------------------------------------------




--------------------------------------- Iteration      1(  26)  ---------------------------------------


    POTLOK:  cpu time    0.3360: real time    0.3384
    SETDIJ:  cpu time    0.0080: real time    0.0076
     EDDAV:  cpu time    7.3720: real time    7.3692
       DOS:  cpu time    0.0000: real time    0.0007
    CHARGE:  cpu time    0.1600: real time    0.1617
    MIXING:  cpu time    0.0240: real time    0.0223
    --------------------------------------------
      LOOP:  cpu time    7.9000: real time    7.8998

 eigenvalue-minimisations  :  1288
 total energy-change (2. order) :-0.9549773E-01  (-0.1691837E-03)
 number of electron     384.9999694 magnetization       1.2149583
 augmentation part      246.4855236 magnetization       0.3896110

 Broyden mixing:
  rms(total) = 0.57653E-02    rms(broyden)= 0.57633E-02
  rms(prec ) = 0.76599E-02
  weight for this iteration     100.00

 eigenvalues of (default mixing * dielectric matrix)
  average eigenvalue GAMMA=   1.5930
 10.9014  5.0906  2.9584  2.3521  1.2389  1.2389  1.2060  0.9676  0.9676  0.9324
  0.7644  0.6604  0.6604  0.5876  0.3312  0.5003  0.3669  0.4444  0.4444  0.4193
  0.4193

 Free energy of the ion-electron system (eV)
  ---------------------------------------------------
  alpha Z        PSCENC =        79.27001166
  Ewald energy   TEWEN  =    116768.96107692
  -Hartree energ DENC   =   -161026.72754995
  -exchange      EXHF   =         0.00000000
  -V(xc)+E(xc)   XCENC  =      1551.54893054
  PAW double counting   =     45375.97697130   -49134.21388475
  entropy T*S    EENTRO =        -0.00000000
  eigenvalues    EBANDS =     -2399.13840020
  atomic energy  EATOM  =     48682.74546302
  Solvation  Ediel_sol  =         0.00000000
  ---------------------------------------------------
  free energy    TOTEN  =      -101.57738145 eV

  energy without entropy =     -101.57738145  energy(sigma->0) =     -101.57738145


--------------------------------------------------------------------------------------------------------




--------------------------------------- Iteration      1(  27)  ---------------------------------------


    POTLOK:  cpu time    0.3280: real time    0.3408
    SETDIJ:  cpu time    0.0080: real time    0.0077
     EDDAV:  cpu time    8.4880: real time    8.4893
       DOS:  cpu time    0.0000: real time    0.0008
    CHARGE:  cpu time    0.1640: real time    0.1612
    MIXING:  cpu time    0.0240: real time    0.0235
    --------------------------------------------
      LOOP:  cpu time    9.0120: real time    9.0233

 eigenvalue-minimisations  :  1544
 total energy-change (2. order) :-0.5637557E-01  (-0.1176375E-03)
 number of electron     384.9999694 magnetization       1.1546359
 augmentation part      246.4870426 magnetization       0.3310023

 Broyden mixing:
  rms(total) = 0.38460E-02    rms(broyden)= 0.38450E-02
  rms(prec ) = 0.52286E-02
  weight for this iteration     100.00

 eigenvalues of (default mixing * dielectric matrix)
  average eigenvalue GAMMA=   1.5931
 10.8999  5.2104  3.1439  2.4439  1.7134  1.2113  1.1166  1.1166  0.9630  0.9630
  0.7284  0.7284  0.6594  0.6594  0.5900  0.3312  0.3670  0.4689  0.4458  0.4458
  0.4127  0.4285

 Free energy of the ion-electron system (eV)
  ---------------------------------------------------
  alpha Z        PSCENC =        79.27001166
  Ewald energy   TEWEN  =    116768.96107692
  -Hartree energ DENC   =   -161022.86409805
  -exchange      EXHF   =         0.00000000
  -V(xc)+E(xc)   XCENC  =      1551.47486507
  PAW double counting   =     45376.96583602   -49135.13490175
  entropy T*S    EENTRO =         0.00000000
  eigenvalues    EBANDS =     -2403.05200992
  atomic energy  EATOM  =     48682.74546302
  Solvation  Ediel_sol  =         0.00000000
  ---------------------------------------------------
  free energy    TOTEN  =      -101.63375702 eV

  energy without entropy =     -101.63375702  energy(sigma->0) =     -101.63375702


--------------------------------------------------------------------------------------------------------




--------------------------------------- Iteration      1(  28)  ---------------------------------------


    POTLOK:  cpu time    0.3280: real time    0.3407
    SETDIJ:  cpu time    0.0080: real time    0.0075
     EDDAV:  cpu time    8.4720: real time    8.4714
       DOS:  cpu time    0.0000: real time    0.0007
    CHARGE:  cpu time    0.1600: real time    0.1613
    MIXING:  cpu time    0.0240: real time    0.0249
    --------------------------------------------
      LOOP:  cpu time    8.9920: real time    9.0066

 eigenvalue-minimisations  :  1536
 total energy-change (2. order) :-0.2180119E-01  (-0.4911706E-04)
 number of electron     384.9999694 magnetization       1.1028241
 augmentation part      246.4895626 magnetization       0.2799555

 Broyden mixing:
  rms(total) = 0.30595E-02    rms(broyden)= 0.30589E-02
  rms(prec ) = 0.40358E-02
  weight for this iteration     100.00

 eigenvalues of (default mixing * dielectric matrix)
  average eigenvalue GAMMA=   1.5839
 10.9091  5.2468  3.4069  2.4844  1.9488  1.1986  1.1986  1.1526  0.9626  0.9626
  0.8012  0.8012  0.6578  0.6578  0.5730  0.5730  0.3312  0.3669  0.4769  0.4437
  0.4437  0.4159  0.4159

 Free energy of the ion-electron system (eV)
  ---------------------------------------------------
  alpha Z        PSCENC =        79.27001166
  Ewald energy   TEWEN  =    116768.96107692
  -Hartree energ DENC   =   -161020.11683350
  -exchange      EXHF   =         0.00000000
  -V(xc)+E(xc)   XCENC  =      1551.43681457
  PAW double counting   =     45378.20708773   -49136.34759216
  entropy T*S    EENTRO =         0.00000000
  eigenvalues    EBANDS =     -2405.81158646
  atomic energy  EATOM  =     48682.74546302
  Solvation  Ediel_sol  =         0.00000000
  ---------------------------------------------------
  free energy    TOTEN  =      -101.65555821 eV

  energy without entropy =     -101.65555821  energy(sigma->0) =     -101.65555821


--------------------------------------------------------------------------------------------------------




--------------------------------------- Iteration      1(  29)  ---------------------------------------


    POTLOK:  cpu time    0.3440: real time    0.3447
    SETDIJ:  cpu time    0.0040: real time    0.0075
     EDDAV:  cpu time    8.3560: real time    8.3558
       DOS:  cpu time    0.0040: real time    0.0007
    CHARGE:  cpu time    0.1600: real time    0.1613
    MIXING:  cpu time    0.0280: real time    0.0265
    --------------------------------------------
      LOOP:  cpu time    8.8960: real time    8.8964

 eigenvalue-minimisations  :  1512
 total energy-change (2. order) :-0.1325770E-01  (-0.3931275E-04)
 number of electron     384.9999694 magnetization       1.0610921
 augmentation part      246.4895197 magnetization       0.2383144

 Broyden mixing:
  rms(total) = 0.20596E-02    rms(broyden)= 0.20590E-02
  rms(prec ) = 0.27314E-02
  weight for this iteration     100.00

 eigenvalues of (default mixing * dielectric matrix)
  average eigenvalue GAMMA=   1.6000
 10.9217  5.3073  3.9374  2.6796  2.0258  1.4287  1.1401  1.0979  1.0979  0.9730
  0.9730  0.8418  0.6587  0.6587  0.6770  0.6088  0.3312  0.3669  0.4836  0.4777
  0.4417  0.4417  0.4152  0.4152

 Free energy of the ion-electron system (eV)
  ---------------------------------------------------
  alpha Z        PSCENC =        79.27001166
  Ewald energy   TEWEN  =    116768.96107692
  -Hartree energ DENC   =   -161017.78463452
  -exchange      EXHF   =         0.00000000
  -V(xc)+E(xc)   XCENC  =      1551.41543176
  PAW double counting   =     45379.51879045   -49137.67704545
  entropy T*S    EENTRO =         0.00000000
  eigenvalues    EBANDS =     -2408.11790976
  atomic energy  EATOM  =     48682.74546302
  Solvation  Ediel_sol  =         0.00000000
  ---------------------------------------------------
  free energy    TOTEN  =      -101.66881591 eV

  energy without entropy =     -101.66881591  energy(sigma->0) =     -101.66881591


--------------------------------------------------------------------------------------------------------




--------------------------------------- Iteration      1(  30)  ---------------------------------------


    POTLOK:  cpu time    0.3320: real time    0.3378
    SETDIJ:  cpu time    0.0080: real time    0.0078
     EDDAV:  cpu time    8.2520: real time    8.2497
       DOS:  cpu time    0.0000: real time    0.0008
    CHARGE:  cpu time    0.1600: real time    0.1608
    MIXING:  cpu time    0.0280: real time    0.0285
    --------------------------------------------
[...]
  0.000  -0.000   0.000   0.001  -0.001   0.000   0.000  -0.000  -0.000   0.000  -0.002  -0.000  -0.002  -0.001   0.000   0.000
  0.000   0.000  -0.000   0.000  -0.000   0.000   0.000   0.000  -0.000   0.000  -0.000   0.000  -0.000  -0.000   0.000   0.000
 -0.000   0.000   0.000  -0.000  -0.000   0.000  -0.000  -0.000   0.000   0.000  -0.000  -0.000  -0.000  -0.000   0.000   0.000
  0.000  -0.000  -0.000   0.000  -0.000  -0.000  -0.000   0.000   0.000   0.000   0.000  -0.000   0.000   0.000  -0.000  -0.000


------------------------ aborting loop because EDIFF is reached ----------------------------------------


 


 total charge     
 
# of ion       s       p       d       tot
------------------------------------------
    1        0.474   0.238   9.238   9.949
    2        0.466   0.235   9.229   9.931
    3        0.466   0.250   9.224   9.940
    4        0.461   0.239   9.227   9.927
    5        0.475   0.145   9.281   9.901
    6        0.466   0.282   9.197   9.945
    7        0.460   0.253   9.223   9.936
    8        0.475   0.235   9.224   9.934
    9        0.451   0.314   9.204   9.968
   10        0.473   0.229   9.236   9.938
   11        0.467   0.203   9.253   9.923
   12        0.458   0.249   9.226   9.932
   13        0.472   0.185   9.257   9.915
   14        0.411   0.331   9.228   9.969
   15        0.430   0.329   9.230   9.990
   16        0.466   0.273   9.218   9.957
   17        0.468   0.266   9.207   9.941
   18        0.418   0.345   9.232   9.995
   19        0.462   0.299   9.206   9.967
   20        0.444   0.353   9.191   9.987
   21        0.482   0.219   9.238   9.939
   22        0.461   0.254   9.227   9.942
   23        0.450   0.357   9.187   9.994
   24        0.473   0.154   9.273   9.900
   25        0.471   0.240   9.228   9.939
   26        0.477   0.144   9.280   9.901
   27        0.469   0.266   9.214   9.950
   28        0.469   0.182   9.260   9.911
   29        0.467   0.275   9.221   9.962
   30        0.464   0.251   9.217   9.932
   31        0.477   0.223   9.238   9.938
   32        0.462   0.277   9.205   9.944
   33        0.457   0.235   9.225   9.917
   34        0.468   0.188   9.252   9.909
   35        0.469   0.295   9.207   9.971
--------------------------------------------------
tot         16.179   8.812 323.003 347.994
 


 magnetization (x)
 
# of ion       s       p       d       tot
------------------------------------------
    1        0.003   0.005  -0.002   0.006
    2        0.007   0.005   0.004   0.016
    3       -0.000   0.002   0.004   0.006
    4       -0.000   0.002   0.012   0.014
    5        0.012   0.002   0.004   0.017
    6        0.003   0.000   0.013   0.016
    7        0.001   0.005   0.018   0.024
    8        0.000   0.003   0.002   0.005
    9        0.001   0.002   0.005   0.009
   10        0.019   0.006   0.012   0.037
   11        0.001   0.003   0.005   0.009
   12        0.005   0.007   0.016   0.028
   13       -0.001   0.001   0.001   0.002
   14        0.002   0.004   0.017   0.022
   15        0.017   0.001   0.011   0.029
   16        0.003   0.004   0.005   0.013
   17        0.007   0.003   0.008   0.019
   18       -0.000   0.003   0.012   0.015
   19        0.001   0.004   0.006   0.011
   20        0.002   0.004   0.017   0.023
   21        0.000   0.001   0.007   0.008
   22        0.000   0.004   0.010   0.014
   23        0.010   0.004   0.003   0.017
   24        0.009   0.002   0.004   0.015
   25        0.007   0.004   0.008   0.019
   26        0.006   0.002   0.006   0.014
   27        0.001   0.008   0.000   0.010
   28        0.010   0.003   0.008   0.021
   29        0.010   0.001   0.003   0.014
   30        0.001   0.011   0.001   0.013
   31        0.004   0.002   0.009   0.014
   32        0.001   0.002   0.016   0.019
   33        0.002   0.001   0.003   0.005
   34        0.007   0.003   0.010   0.020
   35        0.001   0.003   0.007   0.010
--------------------------------------------------
tot          0.151   0.119   0.265   0.535
 
    CHARGE:  cpu time    0.1560: real time    0.1551
    FORLOC:  cpu time    0.0200: real time    0.0223
    FORNL :  cpu time    3.6040: real time    3.6023
    STRESS:  cpu time    6.0920: real time    6.0929
    FORCOR:  cpu time    0.3240: real time    0.3237
    FORHAR:  cpu time    0.0560: real time    0.0555
    MIXING:  cpu time    0.0520: real time    0.0515
    OFIELD:  cpu time    0.0000: real time    0.0001

  FORCE on cell =-STRESS in cart. coord.  units (eV):
  Direction    XX          YY          ZZ          XY          YZ          ZX
  --------------------------------------------------------------------------------------
  Alpha Z    79.27001    79.27001    79.27001
  Ewald   39313.50655 36310.59654 41144.78556 -6516.22405  2135.48866 -2252.28387
  Hartree 54030.04982 51227.91992 55754.60367 -6112.37961  1985.49615 -2040.31076
  E(xc)   -2246.85600 -2247.16275 -2246.69435    -0.45477     0.19346    -0.38133
  Local  -96818.92599-91016.93644************ 12625.25336 -4118.03923  4288.37405
  n-local  -810.87758  -811.96646  -809.81347    -1.19429     0.42490    -0.82939
  augment  3292.87790  3294.71841  3293.24643     2.02691    -1.61149     2.49101
  Kinetic  3151.56094  3153.81258  3151.63923     2.85739    -1.84948     2.97881
  Fock        0.00000     0.00000     0.00000     0.00000     0.00000     0.00000
  -------------------------------------------------------------------------------------
  Total      -9.39434    -9.74819    -9.56054    -0.11505     0.10298     0.03853
  in kB      -1.33180    -1.38196    -1.35536    -0.01631     0.01460     0.00546
  external pressure =       -1.36 kB  Pullay stress =        0.00 kB


 VOLUME and BASIS-vectors are now :
 -----------------------------------------------------------------------------
  energy-cutoff  :      295.45
  volume of cell :    11301.59
      direct lattice vectors                 reciprocal lattice vectors
    22.441220000  0.000000000  0.000000000     0.044560857  0.000000000  0.000000000
     0.000000000 22.441220000  0.000000000     0.000000000  0.044560857  0.000000000
     0.000000000  0.000000000 22.441220000     0.000000000  0.000000000  0.044560857

  length of vectors
    22.441220000 22.441220000 22.441220000     0.044560857  0.044560857  0.044560857


 FORCES acting on ions
    electron-ion (+dipol)            ewald-force                    non-local-force                 convergence-correction
 -----------------------------------------------------------------------------------------------
   -.147E+04 0.805E+03 -.124E+04   0.147E+04 -.804E+03 0.124E+04   0.416E+01 -.164E+01 0.335E+01   -.468E-04 0.681E-04 0.221E-03
   -.127E+04 -.297E+03 -.166E+04   0.126E+04 0.296E+03 0.166E+04   0.271E+01 0.699E+00 0.533E+01   -.170E-04 -.766E-04 0.168E-03
   -.592E+03 -.109E+04 -.170E+04   0.590E+03 0.109E+04 0.170E+04   0.164E+01 0.317E+01 0.368E+01   0.605E-04 -.139E-05 0.921E-04
   -.201E+04 -.515E+03 -.223E+03   0.200E+04 0.513E+03 0.222E+03   0.506E+01 0.179E+01 0.939E+00   0.102E-03 0.240E-06 0.172E-03
   -.185E+04 0.834E+03 0.145E+03   0.184E+04 -.830E+03 -.143E+03   0.984E+01 -.389E+01 -.215E+01   0.405E-04 -.845E-04 0.485E-04
   -.138E+04 -.134E+04 -.467E+03   0.138E+04 0.134E+04 0.467E+03   0.143E+01 0.101E+01 0.264E+00   0.574E-04 -.545E-04 0.232E-03
   0.814E+03 -.159E+04 -.103E+04   -.812E+03 0.159E+04 0.103E+04   -.163E+01 0.283E+01 0.297E+01   0.662E-04 0.102E-03 0.422E-04
   -.417E+03 0.145E+04 -.143E+04   0.417E+03 -.145E+04 0.143E+04   0.334E+00 -.184E+01 0.335E+01   -.872E-05 -.384E-04 0.186E-03
   -.416E+02 0.436E+03 -.171E+04   0.405E+02 -.435E+03 0.171E+04   0.112E+01 -.816E+00 -.595E+00   0.167E-03 -.327E-04 0.141E-03
   -.375E+03 -.209E+04 -.545E+03   0.374E+03 0.208E+04 0.543E+03   0.137E+01 0.691E+01 0.157E+01   -.752E-04 0.317E-04 0.167E-03
   0.464E+03 -.258E+03 -.201E+04   -.464E+03 0.258E+03 0.200E+04   -.642E+00 -.374E+00 0.657E+01   0.913E-04 0.991E-04 -.109E-03
   -.954E+03 0.180E+04 0.771E+02   0.953E+03 -.179E+04 -.766E+02   0.134E+01 -.348E+01 -.556E+00   0.524E-04 -.102E-03 0.311E-04
   0.948E+03 0.151E+04 -.123E+04   -.942E+03 -.151E+04 0.122E+04   -.581E+01 -.574E+01 0.405E+01   0.663E-04 -.126E-03 0.567E-04
   -.673E+03 0.279E+03 -.275E+03   0.671E+03 -.278E+03 0.274E+03   0.209E+01 -.621E+00 0.900E+00   0.649E-04 0.569E-04 0.119E-03
   0.261E+03 -.605E+03 -.383E+03   -.261E+03 0.603E+03 0.382E+03   -.128E+00 0.190E+01 0.431E+00   -.411E-04 0.562E-04 0.114E-03
   -.156E+04 0.605E+03 0.110E+04   0.155E+04 -.604E+03 -.110E+04   0.316E+01 -.100E+01 -.159E+01   -.105E-03 -.752E-04 -.573E-05
   -.162E+04 -.887E+03 0.858E+03   0.162E+04 0.885E+03 -.857E+03   0.235E+01 0.126E+01 -.809E+00   -.458E-04 -.114E-03 0.527E-04
   0.228E+02 -.288E+03 0.742E+03   -.232E+02 0.286E+03 -.740E+03   0.414E+00 0.137E+01 -.197E+01   -.492E-04 0.964E-04 0.965E-05
   0.142E+04 0.597E+03 -.108E+04   -.142E+04 -.598E+03 0.108E+04   -.499E+00 0.513E+00 0.144E+01   0.238E-04 0.306E-05 0.117E-03
   0.786E+03 0.830E+03 -.122E+03   -.786E+03 -.829E+03 0.122E+03   0.790E-01 -.475E+00 0.666E-02   -.261E-04 0.390E-04 0.111E-03
   -.725E+03 -.112E+04 0.174E+04   0.722E+03 0.111E+04 -.174E+04   0.267E+01 0.410E+01 -.572E+01   -.111E-03 -.392E-04 -.493E-04
   -.966E+03 0.292E+03 0.184E+04   0.963E+03 -.292E+03 -.184E+04   0.213E+01 -.405E+00 -.402E+01   0.594E-04 -.355E-04 -.159E-04
   -.371E+03 0.127E+04 0.889E+03   0.373E+03 -.127E+04 -.888E+03   -.140E+01 0.459E+00 -.673E+00   0.643E-04 -.198E-04 0.515E-04
   0.757E+03 0.182E+04 0.746E+03   -.752E+03 -.181E+04 -.745E+03   -.453E+01 -.814E+01 -.142E+01   -.549E-04 -.595E-04 -.310E-04
   0.293E+03 0.204E+04 -.208E+03   -.292E+03 -.204E+04 0.208E+03   -.112E+01 -.447E+01 0.701E+00   0.170E-04 -.149E-04 0.222E-03
   0.162E+04 -.459E+03 -.115E+04   -.161E+04 0.457E+03 0.114E+04   -.967E+01 0.230E+01 0.464E+01   0.964E-04 -.108E-04 -.654E-05
   -.644E+03 -.185E+04 0.603E+03   0.644E+03 0.185E+04 -.602E+03   0.603E+00 0.293E+01 -.151E+01   -.931E-04 0.135E-03 0.344E-04
   0.181E+03 0.106E+04 0.184E+04   -.182E+03 -.105E+04 -.183E+04   0.257E+00 -.439E+01 -.729E+01   -.631E-04 -.236E-04 -.117E-03
   0.185E+04 -.722E+03 -.527E+02   -.185E+04 0.720E+03 0.529E+02   -.306E+01 0.143E+01 -.126E+00   0.985E-05 0.955E-04 -.525E-05
   0.976E+03 -.181E+04 0.334E+03   -.975E+03 0.181E+04 -.334E+03   -.119E+01 0.414E+01 -.414E+00   -.223E-04 0.415E-04 0.234E-04
   0.718E+03 -.150E+04 0.139E+04   -.716E+03 0.149E+04 -.139E+04   -.180E+01 0.487E+01 -.430E+01   -.209E-03 -.505E-04 -.369E-04
   0.165E+04 -.517E+03 0.970E+03   -.165E+04 0.516E+03 -.970E+03   -.108E+01 0.964E+00 -.299E+00   0.153E-04 0.334E-04 -.987E-04
   0.716E+03 -.203E+03 0.199E+04   -.714E+03 0.202E+03 -.199E+04   -.205E+01 0.504E+00 -.524E+01   -.145E-03 0.115E-03 0.300E-06
   0.201E+04 0.734E+03 0.156E+03   -.200E+04 -.728E+03 -.156E+03   -.673E+01 -.552E+01 0.568E+00   0.116E-03 0.128E-03 -.138E-04
   0.142E+04 0.788E+03 0.109E+04   -.142E+04 -.786E+03 -.109E+04   -.732E+00 -.163E+01 -.146E+01   -.127E-04 0.864E-04 -.555E-04
 -----------------------------------------------------------------------------------------------
   -.720E+00 0.123E+01 -.533E+00   0.546E-11 -.227E-12 -.227E-12   0.689E+00 -.128E+01 0.616E+00   0.432E-04 0.229E-03 0.187E-02
 
 
 POSITION                                       TOTAL-FORCE (eV/Angst)
 -----------------------------------------------------------------------------------
     14.47261      9.43453     13.14553         0.006475     -0.011596     -0.029438
     13.46419     11.49560     13.79832         0.010401     -0.023448     -0.024188
     11.72034     13.18048     14.12544        -0.040293      0.004792      0.010852
     14.87785     11.36825     11.64630         0.017856      0.023679      0.024078
     15.74178      9.07501     11.16784        -0.007830      0.020763      0.014577
     13.15347     13.14748     12.01499        -0.021033     -0.021105     -0.004652
      9.36180     14.02810     13.41211        -0.005340     -0.017437      0.015554
     12.24817      8.63549     13.42958         0.007914      0.029260      0.023154
     11.12797     10.73480     13.86325         0.008272      0.011080     -0.024325
     11.40439     14.83947     12.35217         0.010306      0.022978      0.010415
      9.67947     12.25378     15.07320         0.018281      0.013193      0.033225
     13.43714      8.21590     11.27741         0.001362     -0.017627     -0.024307
      9.81434      8.68630     13.42114         0.001774     -0.017449      0.008076
     12.53440     10.64382     11.64303         0.005152      0.016174      0.019705
     10.65553     12.44676     12.01721         0.013347     -0.005617     -0.028145
     14.11125      9.99360      9.67608         0.007302      0.009918     -0.002228
     13.63688     12.36752      9.69810         0.020039      0.023319      0.011038
     11.19969     11.73215      9.73429         0.009884     -0.028857     -0.013069
      8.69886     10.85744     13.29992        -0.033578      0.015079     -0.003137
     10.12907     10.04712     11.41882         0.000714      0.005889     -0.004080
     12.21068     13.12125      7.84253        -0.018154     -0.036150      0.005452
     12.61074     10.76135      7.90634         0.018225     -0.012190      0.019023
     11.79208      9.19235      9.65273         0.014829     -0.018074     -0.022590
      9.99960      7.67617      9.29449        -0.002439      0.023502      0.017670
     11.03838      7.74559     11.50593        -0.019070     -0.013278     -0.009638
      7.46062     12.70163     14.24799         0.022900     -0.013545      0.019305
     11.92700     14.13254     10.09256        -0.024454      0.008367     -0.016850
     10.79607      9.17119      7.43567        -0.046412     -0.025804      0.015076
      7.97206     12.70020     11.87425        -0.020078     -0.007214      0.004034
      9.51177     14.30900     10.85264        -0.003208     -0.013492     -0.002710
     10.03528     13.85897      8.51688         0.023935     -0.012074      0.008883
      8.69225     12.21364      9.61712         0.005806      0.000183     -0.001707
     10.20143     11.59714      7.52700         0.021061      0.016926     -0.027160
      7.77176     10.42050     11.03859        -0.015229      0.028132     -0.030183
      9.23244      9.93621      9.10193         0.011281      0.021724      0.008289
 -----------------------------------------------------------------------------------
    total drift:                               -0.030032     -0.049706      0.084800


--------------------------------------------------------------------------------------------------------



  FREE ENERGIE OF THE ION-ELECTRON SYSTEM (eV)
  ---------------------------------------------------
  free  energy   TOTEN  =      -101.69142397 eV

  energy  without entropy=     -101.69142397  energy(sigma->0) =     -101.69142397
 


--------------------------------------------------------------------------------------------------------


    POTLOK:  cpu time    0.3360: real time    0.3349


--------------------------------------------------------------------------------------------------------




--------------------------------------------------------------------------------------------------------


  
 reached required accuracy - stopping structural energy minimisation
     LOOP+:  cpu time  342.8080: real time  343.2547
    4ORBIT:  cpu time    0.0000: real time    0.0000
 


 total charge     
 
# of ion       s       p       d       tot
------------------------------------------
    1        0.474   0.238   9.238   9.949
    2        0.466   0.235   9.229   9.931
    3        0.466   0.250   9.224   9.940
    4        0.461   0.239   9.227   9.927
    5        0.475   0.145   9.281   9.901
    6        0.466   0.282   9.197   9.945
    7        0.460   0.253   9.223   9.936
    8        0.475   0.235   9.224   9.934
    9        0.451   0.314   9.204   9.968
   10        0.473   0.229   9.236   9.938
   11        0.467   0.203   9.253   9.923
   12        0.458   0.249   9.226   9.932
   13        0.472   0.185   9.257   9.915
   14        0.411   0.331   9.228   9.969
   15        0.430   0.329   9.230   9.990
   16        0.466   0.273   9.218   9.957
   17        0.468   0.266   9.207   9.941
   18        0.418   0.345   9.232   9.995
   19        0.462   0.299   9.206   9.967
   20        0.444   0.353   9.191   9.987
   21        0.482   0.219   9.238   9.939
   22        0.461   0.254   9.227   9.942
   23        0.450   0.357   9.187   9.994
   24        0.473   0.154   9.273   9.900
   25        0.471   0.240   9.228   9.939
   26        0.477   0.144   9.280   9.901
   27        0.469   0.266   9.214   9.950
   28        0.469   0.182   9.260   9.911
   29        0.467   0.275   9.221   9.962
   30        0.464   0.251   9.217   9.932
   31        0.477   0.223   9.238   9.938
   32        0.462   0.277   9.205   9.944
   33        0.457   0.235   9.225   9.917
   34        0.468   0.188   9.252   9.909
   35        0.469   0.295   9.207   9.971
--------------------------------------------------
tot         16.179   8.812 323.003 347.994
 


 magnetization (x)
 
# of ion       s       p       d       tot
------------------------------------------
    1        0.003   0.005  -0.002   0.006
    2        0.007   0.005   0.004   0.016
    3       -0.000   0.002   0.004   0.006
    4       -0.000   0.002   0.012   0.014
    5        0.012   0.002   0.004   0.017
    6        0.003   0.000   0.013   0.016
    7        0.001   0.005   0.018   0.024
    8        0.000   0.003   0.002   0.005
    9        0.001   0.002   0.005   0.009
   10        0.019   0.006   0.012   0.037
   11        0.001   0.003   0.005   0.009
   12        0.005   0.007   0.016   0.028
   13       -0.001   0.001   0.001   0.002
   14        0.002   0.004   0.017   0.022
   15        0.017   0.001   0.011   0.029
   16        0.003   0.004   0.005   0.013
   17        0.007   0.003   0.008   0.019
   18       -0.000   0.003   0.012   0.015
   19        0.001   0.004   0.006   0.011
   20        0.002   0.004   0.017   0.023
   21        0.000   0.001   0.007   0.008
   22        0.000   0.004   0.010   0.014
   23        0.010   0.004   0.003   0.017
   24        0.009   0.002   0.004   0.015
   25        0.007   0.004   0.008   0.019
   26        0.006   0.002   0.006   0.014
   27        0.001   0.008   0.000   0.010
   28        0.010   0.003   0.008   0.021
   29        0.010   0.001   0.003   0.014
   30        0.001   0.011   0.001   0.013
   31        0.004   0.002   0.009   0.014
   32        0.001   0.002   0.016   0.019
   33        0.002   0.001   0.003   0.005
   34        0.007   0.003   0.010   0.020
   35        0.001   0.003   0.007   0.010
--------------------------------------------------
tot          0.151   0.119   0.265   0.535
 

 total amount of memory used by VASP MPI-rank0    75738. kBytes
=======================================================================

   base      :      30000. kBytes
   nonl-proj :       4181. kBytes
   fftplans  :       7877. kBytes
   grid      :      20041. kBytes
   one-center:         62. kBytes
   wavefun   :      13577. kBytes
 
  
  
 General timing and accounting informations for this job:
 ========================================================
  
                  Total CPU time used (sec):      349.600
                            User time (sec):      347.084
                          System time (sec):        2.516
                         Elapsed time (sec):      350.066
  
                   Maximum memory used (kb):       39932.
                   Average memory used (kb):           0.
  
                          Minor page faults:        16192
                          Major page faults:           24
                 Voluntary context switches:          556
