 vasp.5.4.4.18Apr17-6-g9f103f2a35 (build Jan 23 2020 13:04:52) gamma-only       
  
 executed on           IFC91_ompi date 2020.12.30  13:59:22
 running on   44 total cores
 distrk:  each k-point on   44 cores,    1 groups
 distr:  one band on NCORES_PER_BAND=  11 cores,    4 groups


--------------------------------------------------------------------------------------------------------


 INCAR:
 POTCAR:    PAW_PBE Cu 22Jun2005                  
 POTCAR:    PAW_PBE Cu 22Jun2005                  
   VRHFIN =Cu: d10 p1                                                           
   LEXCH  = PE                                                                  
   EATOM  =  1390.9808 eV,  102.2342 Ry                                         
                                                                                
   TITEL  = PAW_PBE Cu 22Jun2005                                                
   LULTRA =        F    use ultrasoft PP ?                                      
   IUNSCR =        1    unscreen: 0-lin 1-nonlin 2-no                           
   RPACOR =    2.000    partial core radius                                     
   POMASS =   63.546; ZVAL   =   11.000    mass and valenz                      
   RCORE  =    2.300    outmost cutoff radius                                   
   RWIGS  =    2.200; RWIGS  =    1.164    wigner-seitz radius (au A)           
   ENMAX  =  295.446; ENMIN  =  221.585 eV                                      
   ICORE  =        3    local potential                                         
   LCOR   =        T    correct aug charges                                     
   LPAW   =        T    paw PP                                                  
   EAUG   =  586.980                                                            
   DEXC   =    0.000                                                            
   RMAX   =    2.344    core radius for proj-oper                               
   RAUG   =    1.300    factor for augmentation sphere                          
   RDEP   =    2.302    radius for radial grids                                 
   RDEPT  =    1.771    core radius for aug-charge                              
                                                                                
   Atomic configuration                                                         
    9 entries                                                                   
     n  l   j            E        occ.                                          
     1  0  0.50     -8850.2468   2.0000                                         
     2  0  0.50     -1062.3498   2.0000                                         
     2  1  1.50      -916.8226   6.0000                                         
     3  0  0.50      -114.6929   2.0000                                         
     3  1  1.50       -72.1325   6.0000                                         
     3  2  2.50        -5.0394  10.0000                                         
     4  0  0.50        -4.6097   1.0000                                         
     4  1  0.50        -4.0817   0.0000                                         
     4  3  2.50        -1.3606   0.0000                                         
   Description                                                                  
     l       E           TYP  RCUT    TYP  RCUT                                 
     2     -5.0393973     23  2.200                                             
     2     10.8846608     23  2.200                                             
     0     -4.6097109     23  2.200                                             
     0      8.2520465     23  2.200                                             
     1     -2.7211652     23  2.200                                             
     1     21.7055443     23  2.200                                             
     3      2.7211652     23  2.300                                             
  local pseudopotential read in
  partial core-charges read in
  partial kinetic energy density read in
  atomic valenz-charges read in
  non local Contribution for L=           2  read in
    real space projection operators read in
  non local Contribution for L=           2  read in
    real space projection operators read in
  non local Contribution for L=           0  read in
    real space projection operators read in
  non local Contribution for L=           0  read in
    real space projection operators read in
  non local Contribution for L=           1  read in
    real space projection operators read in
  non local Contribution for L=           1  read in
    real space projection operators read in
    PAW grid and wavefunctions read in
 
   number of l-projection  operators is LMAX  =           6
   number of lm-projection operators is LMMAX =          18
 

 ----------------------------------------------------------------------------- 
|                                                                             |
|  ADVICE TO THIS USER RUNNING 'VASP/VAMP'   (HEAR YOUR MASTER'S VOICE ...):  |
|                                                                             |
|      You have a (more or less) 'large supercell' and for larger cells       |
|      it might be more efficient to use real space projection opertators     |
|      So try LREAL= Auto  in the INCAR   file.                               |
|      Mind:          For very  accurate calculation you might also keep the  |
|      reciprocal projection scheme          (i.e. LREAL=.FALSE.)             |
|                                                                             |
 ----------------------------------------------------------------------------- 

  PAW_PBE Cu 22Jun2005                  :
 energy of atom  1       EATOM=-1390.9808
 kinetic energy error for atom=    0.0452 (will be added to EATOM!!)
 
 
 POSCAR: unknown system                          
  positions in direct lattice
  No initial velocities read in
 exchange correlation table for  LEXCH =        8
   RHO(1)=    0.500       N(1)  =     2000
   RHO(2)=  100.500       N(2)  =     4000
 


--------------------------------------------------------------------------------------------------------


 ion  position               nearest neighbor table
   1  0.561  0.370  0.333-   3 2.38   5 2.42   2 2.46   4 2.48
   2  0.567  0.344  0.440-   5 2.42   7 2.44   6 2.44   3 2.45   8 2.46   1 2.46
   3  0.485  0.403  0.399-   1 2.38   7 2.40   9 2.40   4 2.42  10 2.43   2 2.45   5 2.69
   4  0.527  0.475  0.330-  12 2.42   3 2.42   5 2.45  11 2.45   1 2.48  10 2.50
   5  0.598  0.441  0.405-  13 2.41   2 2.42   1 2.42  11 2.44   4 2.45   8 2.45   3 2.69
   6  0.562  0.329  0.547-   7 2.42  16 2.43   8 2.43  14 2.43   2 2.44
   7  0.473  0.353  0.492-   3 2.40  15 2.40   6 2.42   2 2.44  14 2.44   9 2.49
   8  0.620  0.411  0.508-   6 2.43  19 2.43  13 2.44   5 2.45   2 2.46  16 2.46
   9  0.394  0.421  0.453-   3 2.40  17 2.41  10 2.46  21 2.48  23 2.49   7 2.49  15 2.51
  10  0.435  0.498  0.388-  12 2.42  23 2.43   3 2.43   9 2.46  24 2.46   4 2.50
  11  0.587  0.547  0.386-  22 2.43  12 2.43  13 2.43  18 2.43   5 2.44   4 2.45
  12  0.493  0.576  0.340-  22 2.41   4 2.42  24 2.42  10 2.42  11 2.43
  13  0.638  0.512  0.475-  19 2.40   5 2.41  18 2.42  11 2.43   8 2.44  27 2.53
  14  0.477  0.370  0.599-   6 2.43  20 2.43   7 2.44  26 2.44  15 2.45  16 2.47
  15  0.382  0.363  0.547-   7 2.40  17 2.40  21 2.42  14 2.45  26 2.47   9 2.51
  16  0.576  0.416  0.608-  19 2.41  20 2.42   6 2.43   8 2.46  28 2.47  14 2.47
  17  0.304  0.368  0.474-  21 2.39  15 2.40   9 2.41
  18  0.635  0.617  0.452-  25 2.40  13 2.42  11 2.43  29 2.44  22 2.46  27 2.48
  19  0.651  0.487  0.578-  13 2.40  27 2.41  16 2.41  28 2.42   8 2.43
  20  0.494  0.451  0.669-  34 2.41  16 2.42  28 2.43  14 2.43  26 2.43
  21  0.326  0.454  0.532-  30 2.39  17 2.39  23 2.41  15 2.42  26 2.46   9 2.48
  22  0.530  0.630  0.425-  31 2.41  12 2.41  11 2.43  29 2.44  18 2.46  24 2.47
  23  0.362  0.526  0.462-  21 2.41  10 2.43  24 2.43  32 2.43  30 2.46   9 2.49
  24  0.424  0.603  0.418-  12 2.42  23 2.43  32 2.44  10 2.46  22 2.47  31 2.47
  25  0.673  0.675  0.533-  29 2.39  18 2.40  27 2.41
  26  0.405  0.451  0.608-  30 2.42  20 2.43  14 2.44  34 2.46  21 2.46  15 2.47
  27  0.618  0.587  0.556-  25 2.41  19 2.41  28 2.45  33 2.46  29 2.46  18 2.48  13 2.53
  28  0.561  0.524  0.624-  19 2.42  20 2.43  33 2.43  27 2.45  34 2.46  16 2.47
  29  0.569  0.676  0.515-  25 2.39  31 2.41  33 2.43  22 2.44  18 2.44  27 2.46
  30  0.367  0.544  0.570-  21 2.39  35 2.40  32 2.41  26 2.42  34 2.46  23 2.46
  31  0.464  0.655  0.506-  22 2.41  32 2.41  29 2.41  35 2.42  33 2.46  24 2.47
  32  0.361  0.626  0.502-  30 2.41  31 2.41  23 2.43  24 2.44  35 2.45
  33  0.519  0.618  0.592-  29 2.43  34 2.43  28 2.43  35 2.45  31 2.46  27 2.46
  34  0.454  0.544  0.636-  20 2.41  35 2.43  33 2.43  30 2.46  26 2.46  28 2.46
  35  0.412  0.636  0.598-  30 2.40  31 2.42  34 2.43  33 2.45  32 2.45
 
  LATTYP: Found a simple cubic cell.
 ALAT       =    22.5141130000
  
  Lattice vectors:
  
 A1 = (  22.5141130000,   0.0000000000,   0.0000000000)
 A2 = (   0.0000000000,  22.5141130000,   0.0000000000)
 A3 = (   0.0000000000,   0.0000000000,  22.5141130000)


Analysis of symmetry for initial positions (statically):
=====================================================================
 Subroutine PRICEL returns:
 Original cell was already a primitive cell.
 

 Routine SETGRP: Setting up the symmetry group for a 
 simple cubic supercell.


 Subroutine GETGRP returns: Found  1 space group operations
 (whereof  1 operations were pure point group operations)
 out of a pool of 48 trial point group operations.


The static configuration has the point symmetry C_1 .


Analysis of symmetry for dynamics (positions and initial velocities):
=====================================================================
 Subroutine PRICEL returns:
 Original cell was already a primitive cell.
 

 Routine SETGRP: Setting up the symmetry group for a 
 simple cubic supercell.


 Subroutine GETGRP returns: Found  1 space group operations
 (whereof  1 operations were pure point group operations)
 out of a pool of 48 trial point group operations.


The dynamic configuration has the point symmetry C_1 .


Analysis of structural, dynamic, and magnetic symmetry:
=====================================================================
 Subroutine PRICEL returns:
 Original cell was already a primitive cell.
 

 Routine SETGRP: Setting up the symmetry group for a 
 simple cubic supercell.


 Subroutine GETGRP returns: Found  1 space group operations
 (whereof  1 operations were pure point group operations)
 out of a pool of 48 trial point group operations.


The magnetic configuration has the point symmetry C_1 .


 Subroutine INISYM returns: Found  1 space group operations
 (whereof  1 operations are pure point group operations),
 and found     1 'primitive' translations

 
 
 KPOINTS: Gamma-point only                        
  k-points in reciprocal lattice
Space group operators:
 irot       det(A)        alpha          n_x          n_y          n_z        tau_x        tau_y        tau_z
    1     1.000000     0.000000     1.000000     0.000000     0.000000     0.000000     0.000000     0.000000


--------------------------------------------------------------------------------------------------------




 Dimension of arrays:
   k-points           NKPTS =      1   k-points in BZ     NKDIM =      1   number of bands    NBANDS=    284
   number of dos      NEDOS =    301   number of ions     NIONS =     35
   non local maximal  LDIM  =      6   non local SUM 2l+1 LMDIM =     18
   total plane-waves  NPLWV = 884736
   max r-space proj   IRMAX =      1   max aug-charges    IRDMAX=   2445
   dimension x,y,z NGX =    96 NGY =   96 NGZ =   96
   dimension x,y,z NGXF=   192 NGYF=  192 NGZF=  192
   support grid    NGXF=   192 NGYF=  192 NGZF=  192
   ions per type =              35
   NGX,Y,Z   is equivalent  to a cutoff of   7.09,  7.09,  7.09 a.u.
   NGXF,Y,Z  is equivalent  to a cutoff of  14.18, 14.18, 14.18 a.u.

 SYSTEM =  unknown system                          
 POSCAR =  unknown system                          

 Startparameter for this run:
   NWRITE =      2    write-flag & timer
   PREC   = normal    normal or accurate (medium, high low for compatibility)
   ISTART =      0    job   : 0-new  1-cont  2-samecut
   ICHARG =      2    charge: 1-file 2-atom 10-const
   ISPIN  =      2    spin polarized calculation?
   LNONCOLLINEAR =      F non collinear calculations
   LSORBIT =      F    spin-orbit coupling
   INIWAV =      1    electr: 0-lowe 1-rand  2-diag
   LASPH  =      F    aspherical Exc in radial PAW
   METAGGA=      F    non-selfconsistent MetaGGA calc.

 Electronic Relaxation 1
   ENCUT  =  295.4 eV  21.71 Ry    4.66 a.u.  31.55 31.55 31.55*2*pi/ulx,y,z
   ENINI  =  295.4     initial cutoff
   ENAUG  =  587.0 eV  augmentation charge cutoff
   NELM   =     60;   NELMIN=  2; NELMDL= -5     # of ELM steps 
   EDIFF  = 0.1E-04   stopping-criterion for ELM
   LREAL  =      F    real-space projection
   NLSPLINE    = F    spline interpolate recip. space projectors
   LCOMPAT=      F    compatible to vasp.4.4
   GGA_COMPAT  = T    GGA compatible to vasp.4.4-vasp.4.6
   LMAXPAW     = -100 max onsite density
   LMAXMIX     =    2 max onsite mixed and CHGCAR
   VOSKOWN=      0    Vosko Wilk Nusair interpolation
   ROPT   =    0.00000
 Ionic relaxation
   EDIFFG = -.1E+00   stopping-criterion for IOM
   NSW    =    101    number of steps for IOM
   NBLOCK =      1;   KBLOCK =    101    inner block; outer block 
   IBRION =      2    ionic relax: 0-MD 1-quasi-New 2-CG
   NFREE  =      1    steps in history (QN), initial steepest desc. (CG)
   ISIF   =      2    stress and relaxation
   IWAVPR =     11    prediction:  0-non 1-charg 2-wave 3-comb
   ISYM   =      2    0-nonsym 1-usesym 2-fastsym
   LCORR  =      T    Harris-Foulkes like correction to forces

   POTIM  = 0.5000    time-step for ionic-motion
   TEIN   =    0.0    initial temperature
   TEBEG  =    0.0;   TEEND  =   0.0 temperature during run
   SMASS  =  -3.00    Nose mass-parameter (am)
   estimated Nose-frequenzy (Omega)   =  0.10E-29 period in steps =****** mass=  -0.116E-25a.u.
   SCALEE = 1.0000    scale energy and forces
   NPACO  =    256;   APACO  = 16.0  distance and # of slots for P.C.
   PSTRESS=    0.0 pullay stress

  Mass of Ions in am
   POMASS =  63.55
  Ionic Valenz
   ZVAL   =  11.00
  Atomic Wigner-Seitz radii
   RWIGS  =  -1.00
  virtual crystal weights 
   VCA    =   1.00
   NELECT =     385.0000    total number of electrons
   NUPDOWN=      -1.0000    fix difference up-down

 DOS related values:
   EMIN   =  10.00;   EMAX   =-10.00  energy-range for DOS
   EFERMI =   0.00
   ISMEAR =     0;   SIGMA  =   0.00  broadening in eV -4-tet -1-fermi 0-gaus

 Electronic relaxation 2 (details)
   IALGO  =     38    algorithm
   LDIAG  =      T    sub-space diagonalisation (order eigenvalues)
   LSUBROT=      F    optimize rotation matrix (better conditioning)
   TURBO    =      0    0=normal 1=particle mesh
   IRESTART =      0    0=no restart 2=restart with 2 vectors
   NREBOOT  =      0    no. of reboots
   NMIN     =      0    reboot dimension
   EREF     =   0.00    reference energy to select bands
   IMIX   =      4    mixing-type and parameters
     AMIX     =   0.40;   BMIX     =  1.00
     AMIX_MAG =   1.60;   BMIX_MAG =  1.00
     AMIN     =   0.10
     WC   =   100.;   INIMIX=   1;  MIXPRE=   1;  MAXMIX= -45

 Intra band minimization:
   WEIMIN = 0.0010     energy-eigenvalue tresh-hold
   EBREAK =  0.88E-08  absolut break condition
   DEPER  =   0.30     relativ break condition  

   TIME   =   0.40     timestep for ELM

  volume/ion in A,a.u.               =     326.06      2200.36
  Fermi-wavevector in a.u.,A,eV,Ry     =   0.528981  0.999630  3.807197  0.279821
  Thomas-Fermi vector in A             =   1.550865
 
 Write flags
   LWAVE        =      F    write WAVECAR
   LDOWNSAMPLE  =      F    k-point downsampling of WAVECAR
   LCHARG       =      F    write CHGCAR
   LVTOT        =      F    write LOCPOT, total local potential
   LVHAR        =      F    write LOCPOT, Hartree potential only
   LELF         =      F    write electronic localiz. function (ELF)
   LORBIT       =     11    0 simple, 1 ext, 2 COOP (PROOUT), +10 PAW based schemes


 Dipole corrections
   LMONO  =      F    monopole corrections only (constant potential shift)
   LDIPOL =      F    correct potential (dipole corrections)
   IDIPOL =      0    1-x, 2-y, 3-z, 4-all directions 
   EPSILON=  1.0000000 bulk dielectric constant

 Exchange correlation treatment:
   GGA     =    PE    GGA type
   LEXCH   =     8    internal setting for exchange type
   VOSKOWN=      0    Vosko Wilk Nusair interpolation
   LHFCALC =     F    Hartree Fock is set to
   LHFONE  =     F    Hartree Fock one center treatment
   AEXX    =    0.0000 exact exchange contribution

 Linear response parameters
   LEPSILON=     F    determine dielectric tensor
   LRPA    =     F    only Hartree local field effects (RPA)
   LNABLA  =     F    use nabla operator in PAW spheres
   LVEL    =     F    velocity operator in full k-point grid
   LINTERFAST=   F  fast interpolation
   KINTER  =     0    interpolate to denser k-point grid
   CSHIFT  =0.1000    complex shift for real part using Kramers Kronig
   OMEGAMAX=  -1.0    maximum frequency
   DEG_THRESHOLD= 0.2000000E-02 threshold for treating states as degnerate
   RTIME   =   -0.100 relaxation time in fs
  (WPLASMAI=    0.000 imaginary part of plasma frequency in eV, 0.658/RTIME)
   DFIELD  = 0.0000000 0.0000000 0.0000000 field for delta impulse in time
 
 Orbital magnetization related:
   ORBITALMAG=     F  switch on orbital magnetization
   LCHIMAG   =     F  perturbation theory with respect to B field
   DQ        =  0.001000  dq finite difference perturbation B field
   LLRAUG    =     F  two centre corrections for induced B field



--------------------------------------------------------------------------------------------------------


 conjugate gradient relaxation of ions
 charge density and potential will be updated during run
 spin polarized calculation
 Variant of blocked Davidson
 Davidson routine will perform the subspace rotation
 perform sub-space diagonalisation
    after iterative eigenvector-optimisation
 modified Broyden-mixing scheme, WC =      100.0
 initial mixing is a Kerker type mixing with AMIX =  0.4000 and BMIX =      1.0000
 Hartree-type preconditioning will be used
 using additional bands           91
 reciprocal scheme for non local part
 use partial core corrections
 calculate Harris-corrections to forces 
   (improved forces if not selfconsistent)
 use gradient corrections 
 use of overlap-Matrix (Vanderbilt PP)
 Gauss-broadening in eV      SIGMA  =   0.00


--------------------------------------------------------------------------------------------------------


  energy-cutoff  :      295.45
  volume of cell :    11412.07
      direct lattice vectors                 reciprocal lattice vectors
    22.514113000  0.000000000  0.000000000     0.044416584  0.000000000  0.000000000
     0.000000000 22.514113000  0.000000000     0.000000000  0.044416584  0.000000000
     0.000000000  0.000000000 22.514113000     0.000000000  0.000000000  0.044416584

  length of vectors
    22.514113000 22.514113000 22.514113000     0.044416584  0.044416584  0.044416584


 
 k-points in units of 2pi/SCALE and weight: Gamma-point only                        
   0.00000000  0.00000000  0.00000000       1.000
 
 k-points in reciprocal lattice and weights: Gamma-point only                        
   0.00000000  0.00000000  0.00000000       1.000
 
 position of ions in fractional coordinates (direct lattice) 
   0.56132743  0.36980520  0.33345756
   0.56689374  0.34397720  0.43958165
   0.48498992  0.40324638  0.39878423
   0.52700923  0.47450217  0.33025089
   0.59805986  0.44091105  0.40523762
   0.56172930  0.32878356  0.54672737
   0.47260603  0.35294333  0.49195051
   0.61957536  0.41091018  0.50777314
   0.39442302  0.42062972  0.45258837
   0.43491673  0.49842244  0.38761253
   0.58655817  0.54692059  0.38591161
   0.49300365  0.57575109  0.34028393
   0.63752158  0.51240312  0.47468190
   0.47690998  0.37045066  0.59876383
   0.38165336  0.36283613  0.54684504
   0.57618238  0.41612940  0.60810663
   0.30380524  0.36789030  0.47389420
   0.63490606  0.61743476  0.45208468
   0.65051923  0.48704442  0.57750991
   0.49441743  0.45090976  0.66864590
   0.32584937  0.45362807  0.53246519
   0.52968747  0.62964563  0.42526623
   0.36227596  0.52605220  0.46222452
   0.42364977  0.60297753  0.41760931
   0.67344464  0.67507715  0.53332016
   0.40483172  0.45081153  0.60815756
   0.61755011  0.58675616  0.55638658
   0.56056725  0.52350655  0.62394880
   0.56861030  0.67561756  0.51539850
   0.36688992  0.54376581  0.57014953
   0.46379939  0.65505003  0.50567689
   0.36060519  0.62635886  0.50243190
   0.51924993  0.61818285  0.59226244
   0.45377614  0.54436736  0.63605267
   0.41220515  0.63630126  0.59795824
 
 position of ions in cartesian coordinates  (Angst):
  12.63778919  8.32583606  7.50750119
  12.76310972  7.74434155  9.89679094
  10.91911786  9.07873457  8.97827322
  11.86514536 10.68299547  7.43530586
  13.46478727  9.92672120  9.12356557
  12.64683694  7.40227022 12.30908179
  10.64030556  7.94620601 11.07582937
  13.94918967  9.25127823 11.43206185
   8.88008444  9.47010505 10.18962570
   9.79176440 11.22153914  8.72675230
  13.20583692 12.31343197  8.68845760
  11.09953989 12.96252510  7.66119085
  14.35323289 11.53630175 10.68704194
  10.73720518  8.34036802 13.48063653
   8.59258687  8.16893363 12.31173102
  12.97223521  9.36878433 13.69098138
   6.83990550  8.28272379 10.66930757
  14.29434678 13.90099596 10.17828557
  14.64586345 10.96537311 13.00212337
  11.13136989 10.15183329 15.05396935
   7.33620954 10.21303363 11.98798146
  11.92544355 14.17591286  9.57449196
   8.15632190 11.84359867 10.40657507
   9.53809879 13.57550425  9.40210320
  15.16200872 15.19876324 12.00723035
   9.11442709 10.14962173 13.69212803
  13.90359296 13.21029449 12.52655033
  12.62067441 11.78628562 14.04765379
  12.80175655 15.21093009 11.60374007
   8.26020112 12.24240489 12.83641095
  10.44203188 14.74787040 11.38486664
   8.11870600 14.10191415 11.31180857
  11.69045160 13.91783854 13.33426350
  10.21636729 12.25594826 14.32016169
   9.28043333 14.32575847 13.46249938
 


--------------------------------------------------------------------------------------------------------


 use parallel FFT for orbitals z direction half grid
 k-point  1 :   0.0000 0.0000 0.0000  plane waves:   65842

 maximum and minimum number of plane-waves per node :      5994     5979

 maximum number of plane-waves:     65842
 maximum index in each direction: 
   IXMAX=   31   IYMAX=   31   IZMAX=   31
   IXMIN=  -31   IYMIN=  -31   IZMIN=    0


 parallel 3D FFT for wavefunctions:
    minimum data exchange during FFTs selected (reduces bandwidth)
 parallel 3D FFT for charge:
    minimum data exchange during FFTs selected (reduces bandwidth)


 total amount of memory used by VASP MPI-rank0    75893. kBytes
=======================================================================

   base      :      30000. kBytes
   nonl-proj :       4218. kBytes
   fftplans  :       7877. kBytes
   grid      :      20041. kBytes
   one-center:         62. kBytes
   wavefun   :      13695. kBytes
 
     INWAV:  cpu time    0.0000: real time    0.0003
 Broyden mixing: mesh for mixing (old mesh)
   NGX = 63   NGY = 63   NGZ = 63
  (NGX  =192   NGY  =192   NGZ  =192)
  gives a total of 250047 points

 initial charge density was supplied:
 charge density of overlapping atoms calculated
 number of electron     385.0000000 magnetization     105.0000000
 keeping initial charge density in first step


--------------------------------------------------------------------------------------------------------


 Maximum index for augmentation-charges          199 (set IRDMAX)


--------------------------------------------------------------------------------------------------------


 First call to EWALD:  gamma=   0.079
 Maximum number of real-space cells 3x 3x 3
 Maximum number of reciprocal cells 3x 3x 3

    FEWALD:  cpu time    0.0000: real time    0.0016


--------------------------------------- Iteration      1(   1)  ---------------------------------------


    POTLOK:  cpu time    0.3440: real time    0.4181
    SETDIJ:  cpu time    0.0080: real time    0.0076
     EDDAV:  cpu time    6.7160: real time    6.7228
       DOS:  cpu time    0.0000: real time    0.0003
    --------------------------------------------
      LOOP:  cpu time    7.0680: real time    7.1489

 eigenvalue-minimisations  :  1168
 total energy-change (2. order) : 0.2481977E+04  (-0.8600533E+04)
 number of electron     385.0000000 magnetization     105.0000000
 augmentation part      385.0000000 magnetization     105.0000000

 Free energy of the ion-electron system (eV)
  ---------------------------------------------------
  alpha Z        PSCENC =        78.50255422
  Ewald energy   TEWEN  =     99959.28646308
  -Hartree energ DENC   =   -144416.56285646
  -exchange      EXHF   =         0.00000000
  -V(xc)+E(xc)   XCENC  =      1610.12159185
  PAW double counting   =     42952.60129310   -46651.35568999
  entropy T*S    EENTRO =         0.00000000
  eigenvalues    EBANDS =       266.63835762
  atomic energy  EATOM  =     48682.74546302
  Solvation  Ediel_sol  =         0.00000000
  ---------------------------------------------------
  free energy    TOTEN  =      2481.97717644 eV

  energy without entropy =     2481.97717644  energy(sigma->0) =     2481.97717644


--------------------------------------------------------------------------------------------------------




--------------------------------------- Iteration      1(   2)  ---------------------------------------


     EDDAV:  cpu time    6.8440: real time    6.8460
       DOS:  cpu time    0.0000: real time    0.0003
    --------------------------------------------
      LOOP:  cpu time    6.8440: real time    6.8463

 eigenvalue-minimisations  :  1192
 total energy-change (2. order) :-0.2364594E+04  (-0.2147782E+04)
 number of electron     385.0000000 magnetization     105.0000000
 augmentation part      385.0000000 magnetization     105.0000000

 Free energy of the ion-electron system (eV)
  ---------------------------------------------------
  alpha Z        PSCENC =        78.50255422
  Ewald energy   TEWEN  =     99959.28646308
  -Hartree energ DENC   =   -144416.56285646
  -exchange      EXHF   =         0.00000000
  -V(xc)+E(xc)   XCENC  =      1610.12159185
  PAW double counting   =     42952.60129310   -46651.35568999
  entropy T*S    EENTRO =        -0.00000000
  eigenvalues    EBANDS =     -2097.95550531
  atomic energy  EATOM  =     48682.74546302
  Solvation  Ediel_sol  =         0.00000000
  ---------------------------------------------------
  free energy    TOTEN  =       117.38331351 eV

  energy without entropy =      117.38331351  energy(sigma->0) =      117.38331351


--------------------------------------------------------------------------------------------------------




--------------------------------------- Iteration      1(   3)  ---------------------------------------


     EDDAV:  cpu time    7.7000: real time    7.7094
       DOS:  cpu time    0.0000: real time    0.0003
    --------------------------------------------
      LOOP:  cpu time    7.7000: real time    7.7097

 eigenvalue-minimisations  :  1392
 total energy-change (2. order) :-0.1768897E+03  (-0.1655121E+03)
 number of electron     385.0000000 magnetization     105.0000000
 augmentation part      385.0000000 magnetization     105.0000000

 Free energy of the ion-electron system (eV)
  ---------------------------------------------------
  alpha Z        PSCENC =        78.50255422
  Ewald energy   TEWEN  =     99959.28646308
  -Hartree energ DENC   =   -144416.56285646
  -exchange      EXHF   =         0.00000000
  -V(xc)+E(xc)   XCENC  =      1610.12159185
  PAW double counting   =     42952.60129310   -46651.35568999
  entropy T*S    EENTRO =         0.00000000
  eigenvalues    EBANDS =     -2274.84520713
  atomic energy  EATOM  =     48682.74546302
  Solvation  Ediel_sol  =         0.00000000
  ---------------------------------------------------
  free energy    TOTEN  =       -59.50638832 eV

  energy without entropy =      -59.50638832  energy(sigma->0) =      -59.50638832


--------------------------------------------------------------------------------------------------------




--------------------------------------- Iteration      1(   4)  ---------------------------------------


     EDDAV:  cpu time    7.7720: real time    7.7900
       DOS:  cpu time    0.0040: real time    0.0004
    --------------------------------------------
      LOOP:  cpu time    7.7760: real time    7.7903

 eigenvalue-minimisations  :  1408
 total energy-change (2. order) :-0.1050370E+02  (-0.1015617E+02)
 number of electron     385.0000000 magnetization     105.0000000
 augmentation part      385.0000000 magnetization     105.0000000

 Free energy of the ion-electron system (eV)
  ---------------------------------------------------
  alpha Z        PSCENC =        78.50255422
  Ewald energy   TEWEN  =     99959.28646308
  -Hartree energ DENC   =   -144416.56285646
  -exchange      EXHF   =         0.00000000
  -V(xc)+E(xc)   XCENC  =      1610.12159185
  PAW double counting   =     42952.60129310   -46651.35568999
  entropy T*S    EENTRO =         0.00000000
  eigenvalues    EBANDS =     -2285.34890294
  atomic energy  EATOM  =     48682.74546302
  Solvation  Ediel_sol  =         0.00000000
  ---------------------------------------------------
  free energy    TOTEN  =       -70.01008412 eV

  energy without entropy =      -70.01008412  energy(sigma->0) =      -70.01008412


--------------------------------------------------------------------------------------------------------




--------------------------------------- Iteration      1(   5)  ---------------------------------------


     EDDAV:  cpu time    7.7080: real time    7.7189
       DOS:  cpu time    0.0000: real time    0.0006
    CHARGE:  cpu time    0.1600: real time    0.1614
    MIXING:  cpu time    0.0080: real time    0.0088
    --------------------------------------------
      LOOP:  cpu time    7.8760: real time    7.8897

 eigenvalue-minimisations  :  1392
 total energy-change (2. order) :-0.3403345E+00  (-0.3389484E+00)
 number of electron     384.9999852 magnetization      95.5199259
 augmentation part      224.9937638 magnetization      91.8964812

 Broyden mixing:
  rms(total) = 0.10368E+02    rms(broyden)= 0.10366E+02
  rms(prec ) = 0.10503E+02
  weight for this iteration     100.00

 Free energy of the ion-electron system (eV)
  ---------------------------------------------------
  alpha Z        PSCENC =        78.50255422
  Ewald energy   TEWEN  =     99959.28646308
  -Hartree energ DENC   =   -144416.56285646
  -exchange      EXHF   =         0.00000000
  -V(xc)+E(xc)   XCENC  =      1610.12159185
  PAW double counting   =     42952.60129310   -46651.35568999
  entropy T*S    EENTRO =         0.00000000
  eigenvalues    EBANDS =     -2285.68923742
  atomic energy  EATOM  =     48682.74546302
  Solvation  Ediel_sol  =         0.00000000
  ---------------------------------------------------
  free energy    TOTEN  =       -70.35041861 eV

  energy without entropy =      -70.35041861  energy(sigma->0) =      -70.35041861


--------------------------------------------------------------------------------------------------------




--------------------------------------- Iteration      1(   6)  ---------------------------------------


    POTLOK:  cpu time    0.3280: real time    0.3433
    SETDIJ:  cpu time    0.0080: real time    0.0078
     EDDAV:  cpu time    6.9880: real time    6.9903
       DOS:  cpu time    0.0040: real time    0.0007
    CHARGE:  cpu time    0.1600: real time    0.1609
    MIXING:  cpu time    0.0080: real time    0.0094
    --------------------------------------------
      LOOP:  cpu time    7.4960: real time    7.5124

 eigenvalue-minimisations  :  1228
 total energy-change (2. order) : 0.2541858E+03  (-0.1645774E+03)
 number of electron     384.9999833 magnetization      89.2425239
 augmentation part      268.3171723 magnetization      56.5523950

 Broyden mixing:
  rms(total) = 0.54507E+01    rms(broyden)= 0.54479E+01
  rms(prec ) = 0.56714E+01
  weight for this iteration     100.00

 eigenvalues of (default mixing * dielectric matrix)
  average eigenvalue GAMMA=   0.9474
  0.9474

 Free energy of the ion-electron system (eV)
  ---------------------------------------------------
  alpha Z        PSCENC =        78.50255422
  Ewald energy   TEWEN  =     99959.28646308
  -Hartree energ DENC   =   -143280.48451356
  -exchange      EXHF   =         0.00000000
  -V(xc)+E(xc)   XCENC  =      1743.95649416
  PAW double counting   =     42938.68464798   -46434.90578361
  entropy T*S    EENTRO =         0.00000000
  eigenvalues    EBANDS =     -3503.94989678
  atomic energy  EATOM  =     48682.74546302
  Solvation  Ediel_sol  =         0.00000000
  ---------------------------------------------------
  free energy    TOTEN  =       183.83542851 eV

  energy without entropy =      183.83542851  energy(sigma->0) =      183.83542851


--------------------------------------------------------------------------------------------------------




--------------------------------------- Iteration      1(   7)  ---------------------------------------


    POTLOK:  cpu time    0.3280: real time    0.3360
    SETDIJ:  cpu time    0.0080: real time    0.0076
     EDDAV:  cpu time    7.4120: real time    7.4143
       DOS:  cpu time    0.0000: real time    0.0007
    CHARGE:  cpu time    0.1600: real time    0.1599
    MIXING:  cpu time    0.0120: real time    0.0098
    --------------------------------------------
      LOOP:  cpu time    7.9200: real time    7.9281

 eigenvalue-minimisations  :  1328
 total energy-change (2. order) : 0.1127202E+02  (-0.6610277E+02)
 number of electron     384.9999833 magnetization      81.0660386
 augmentation part      249.1922633 magnetization      47.0698564

 Broyden mixing:
  rms(total) = 0.23714E+01    rms(broyden)= 0.23702E+01
  rms(prec ) = 0.24009E+01
  weight for this iteration     100.00

 eigenvalues of (default mixing * dielectric matrix)
  average eigenvalue GAMMA=   0.8847
  1.0961  0.6733

 Free energy of the ion-electron system (eV)
  ---------------------------------------------------
  alpha Z        PSCENC =        78.50255422
  Ewald energy   TEWEN  =     99959.28646308
  -Hartree energ DENC   =   -144182.98619380
  -exchange      EXHF   =         0.00000000
  -V(xc)+E(xc)   XCENC  =      1769.28893726
  PAW double counting   =     44278.44803995   -48102.57960614
  entropy T*S    EENTRO =         0.00000000
  eigenvalues    EBANDS =     -2287.59821007
  atomic energy  EATOM  =     48682.74546302
  Solvation  Ediel_sol  =         0.00000000
  ---------------------------------------------------
  free energy    TOTEN  =       195.10744752 eV

  energy without entropy =      195.10744752  energy(sigma->0) =      195.10744752


--------------------------------------------------------------------------------------------------------




--------------------------------------- Iteration      1(   8)  ---------------------------------------


    POTLOK:  cpu time    0.3360: real time    0.3460
    SETDIJ:  cpu time    0.0080: real time    0.0076
     EDDAV:  cpu time    7.4240: real time    7.4226
       DOS:  cpu time    0.0000: real time    0.0006
    CHARGE:  cpu time    0.1600: real time    0.1603
    MIXING:  cpu time    0.0120: real time    0.0110
    --------------------------------------------
      LOOP:  cpu time    7.9400: real time    7.9481

 eigenvalue-minimisations  :  1328
 total energy-change (2. order) : 0.2427806E+02  (-0.7814109E+01)
 number of electron     384.9999839 magnetization      76.4238225
 augmentation part      246.5602264 magnetization      39.4830489

 Broyden mixing:
  rms(total) = 0.20612E+01    rms(broyden)= 0.20605E+01
  rms(prec ) = 0.21240E+01
  weight for this iteration     100.00

 eigenvalues of (default mixing * dielectric matrix)
  average eigenvalue GAMMA=   0.8096
  1.1611  0.6338  0.6338

 Free energy of the ion-electron system (eV)
  ---------------------------------------------------
  alpha Z        PSCENC =        78.50255422
  Ewald energy   TEWEN  =     99959.28646308
  -Hartree energ DENC   =   -144354.68697398
  -exchange      EXHF   =         0.00000000
  -V(xc)+E(xc)   XCENC  =      1787.67487318
  PAW double counting   =     45169.43568113   -49010.06638319
  entropy T*S    EENTRO =        -0.00000000
  eigenvalues    EBANDS =     -2093.50616799
  atomic energy  EATOM  =     48682.74546302
  Solvation  Ediel_sol  =         0.00000000
  ---------------------------------------------------
  free energy    TOTEN  =       219.38550947 eV

  energy without entropy =      219.38550947  energy(sigma->0) =      219.38550947


--------------------------------------------------------------------------------------------------------




--------------------------------------- Iteration      1(   9)  ---------------------------------------


    POTLOK:  cpu time    0.3280: real time    0.3371
    SETDIJ:  cpu time    0.0080: real time    0.0076
     EDDAV:  cpu time    7.8120: real time    7.8155
       DOS:  cpu time    0.0000: real time    0.0006
    CHARGE:  cpu time    0.1640: real time    0.1613
    MIXING:  cpu time    0.0120: real time    0.0110
    --------------------------------------------
      LOOP:  cpu time    8.3240: real time    8.3331

 eigenvalue-minimisations  :  1416
 total energy-change (2. order) :-0.2753263E+02  (-0.2466352E+01)
 number of electron     384.9999837 magnetization      64.0706471
 augmentation part      246.9254656 magnetization      29.2051716

 Broyden mixing:
  rms(total) = 0.16086E+01    rms(broyden)= 0.16080E+01
  rms(prec ) = 0.16326E+01
  weight for this iteration     100.00

 eigenvalues of (default mixing * dielectric matrix)
  average eigenvalue GAMMA=   0.8954
  1.3583  0.9650  0.8230  0.4353

 Free energy of the ion-electron system (eV)
  ---------------------------------------------------
  alpha Z        PSCENC =        78.50255422
  Ewald energy   TEWEN  =     99959.28646308
  -Hartree energ DENC   =   -144333.82953578
  -exchange      EXHF   =         0.00000000
  -V(xc)+E(xc)   XCENC  =      1764.70154526
  PAW double counting   =     45377.06950414   -49202.97608276
  entropy T*S    EENTRO =         0.00000000
  eigenvalues    EBANDS =     -2133.64702897
  atomic energy  EATOM  =     48682.74546302
  Solvation  Ediel_sol  =         0.00000000
  ---------------------------------------------------
  free energy    TOTEN  =       191.85288222 eV

  energy without entropy =      191.85288222  energy(sigma->0) =      191.85288222


--------------------------------------------------------------------------------------------------------




--------------------------------------- Iteration      1(  10)  ---------------------------------------


    POTLOK:  cpu time    0.3400: real time    0.3423
    SETDIJ:  cpu time    0.0080: real time    0.0075
     EDDAV:  cpu time    8.9000: real time    8.8986
       DOS:  cpu time    0.0000: real time    0.0006
    CHARGE:  cpu time    0.1600: real time    0.1598
    MIXING:  cpu time    0.0120: real time    0.0120
    --------------------------------------------
      LOOP:  cpu time    9.4200: real time    9.4208

 eigenvalue-minimisations  :  1664
 total energy-change (2. order) :-0.7690182E+02  (-0.3627323E+01)
 number of electron     384.9999837 magnetization      53.3165905
 augmentation part      247.6159947 magnetization      23.7511247

 Broyden mixing:
  rms(total) = 0.13267E+01    rms(broyden)= 0.13260E+01
  rms(prec ) = 0.13514E+01
  weight for this iteration     100.00

 eigenvalues of (default mixing * dielectric matrix)
  average eigenvalue GAMMA=   1.0655
  2.3868  1.2446  0.6906  0.5329  0.4724

 Free energy of the ion-electron system (eV)
  ---------------------------------------------------
  alpha Z        PSCENC =        78.50255422
  Ewald energy   TEWEN  =     99959.28646308
  -Hartree energ DENC   =   -144326.87769692
  -exchange      EXHF   =         0.00000000
  -V(xc)+E(xc)   XCENC  =      1705.49665573
  PAW double counting   =     45786.18372752   -49573.67194124
  entropy T*S    EENTRO =         0.00000000
  eigenvalues    EBANDS =     -2196.71416017
  atomic energy  EATOM  =     48682.74546302
  Solvation  Ediel_sol  =         0.00000000
  ---------------------------------------------------
  free energy    TOTEN  =       114.95106524 eV

  energy without entropy =      114.95106524  energy(sigma->0) =      114.95106524


--------------------------------------------------------------------------------------------------------




--------------------------------------- Iteration      1(  11)  ---------------------------------------


    POTLOK:  cpu time    0.3280: real time    0.3395
    SETDIJ:  cpu time    0.0080: real time    0.0079
     EDDAV:  cpu time    7.8600: real time    7.8618
       DOS:  cpu time    0.0000: real time    0.0006
    CHARGE:  cpu time    0.1600: real time    0.1614
    MIXING:  cpu time    0.0120: real time    0.0114
    --------------------------------------------
      LOOP:  cpu time    8.3680: real time    8.3826

 eigenvalue-minimisations  :  1424
 total energy-change (2. order) :-0.4262605E+02  (-0.3274900E+01)
 number of electron     384.9999843 magnetization      45.3025279
 augmentation part      248.0397352 magnetization      21.2078580

 Broyden mixing:
  rms(total) = 0.10522E+01    rms(broyden)= 0.10515E+01
  rms(prec ) = 0.10742E+01
  weight for this iteration     100.00

 eigenvalues of (default mixing * dielectric matrix)
  average eigenvalue GAMMA=   1.1120
  3.1801  1.2722  0.6418  0.6418  0.4680  0.4680

 Free energy of the ion-electron system (eV)
  ---------------------------------------------------
  alpha Z        PSCENC =        78.50255422
  Ewald energy   TEWEN  =     99959.28646308
  -Hartree energ DENC   =   -144346.60441947
  -exchange      EXHF   =         0.00000000
  -V(xc)+E(xc)   XCENC  =      1675.27517225
  PAW double counting   =     45999.92196983   -49763.99458618
  entropy T*S    EENTRO =         0.00000000
  eigenvalues    EBANDS =     -2212.80759942
  atomic energy  EATOM  =     48682.74546302
  Solvation  Ediel_sol  =         0.00000000
  ---------------------------------------------------
  free energy    TOTEN  =        72.32501733 eV

  energy without entropy =       72.32501733  energy(sigma->0) =       72.32501733


--------------------------------------------------------------------------------------------------------




--------------------------------------- Iteration      1(  12)  ---------------------------------------


    POTLOK:  cpu time    0.3360: real time    0.3383
    SETDIJ:  cpu time    0.0080: real time    0.0076
     EDDAV:  cpu time    7.7680: real time    7.7686
       DOS:  cpu time    0.0000: real time    0.0007
    CHARGE:  cpu time    0.1600: real time    0.1605
    MIXING:  cpu time    0.0120: real time    0.0130
    --------------------------------------------
      LOOP:  cpu time    8.2840: real time    8.2886

 eigenvalue-minimisations  :  1400
 total energy-change (2. order) :-0.2478741E+02  (-0.2006117E+01)
 number of electron     384.9999849 magnetization      37.1450951
 augmentation part      247.8613689 magnetization      15.0429611

 Broyden mixing:
  rms(total) = 0.81603E+00    rms(broyden)= 0.81589E+00
  rms(prec ) = 0.83167E+00
  weight for this iteration     100.00

 eigenvalues of (default mixing * dielectric matrix)
  average eigenvalue GAMMA=   1.2140
  3.9588  1.4915  0.7893  0.7893  0.5607  0.4541  0.4541

 Free energy of the ion-electron system (eV)
  ---------------------------------------------------
  alpha Z        PSCENC =        78.50255422
  Ewald energy   TEWEN  =     99959.28646308
  -Hartree energ DENC   =   -144391.59646599
  -exchange      EXHF   =         0.00000000
  -V(xc)+E(xc)   XCENC  =      1658.79561725
  PAW double counting   =     46080.88415038   -49839.31243281
  entropy T*S    EENTRO =         0.00000000
  eigenvalues    EBANDS =     -2181.76774228
  atomic energy  EATOM  =     48682.74546302
  Solvation  Ediel_sol  =         0.00000000
  ---------------------------------------------------
  free energy    TOTEN  =        47.53760687 eV

  energy without entropy =       47.53760687  energy(sigma->0) =       47.53760687


--------------------------------------------------------------------------------------------------------




--------------------------------------- Iteration      1(  13)  ---------------------------------------


    POTLOK:  cpu time    0.3280: real time    0.3426
    SETDIJ:  cpu time    0.0080: real time    0.0076
     EDDAV:  cpu time    7.9600: real time    7.9591
       DOS:  cpu time    0.0000: real time    0.0006
    CHARGE:  cpu time    0.1640: real time    0.1628
    MIXING:  cpu time    0.0120: real time    0.0132
    --------------------------------------------
      LOOP:  cpu time    8.4720: real time    8.4859

 eigenvalue-minimisations  :  1448
 total energy-change (2. order) :-0.4141332E+02  (-0.3169305E+01)
 number of electron     384.9999848 magnetization      28.0581181
 augmentation part      246.8849379 magnetization      11.4986536

 Broyden mixing:
  rms(total) = 0.72019E+00    rms(broyden)= 0.71960E+00
  rms(prec ) = 0.74322E+00
  weight for this iteration     100.00

 eigenvalues of (default mixing * dielectric matrix)
  average eigenvalue GAMMA=   1.2786
  4.8753  1.6175  0.8691  0.8691  0.6652  0.4869  0.4869  0.3590

 Free energy of the ion-electron system (eV)
  ---------------------------------------------------
  alpha Z        PSCENC =        78.50255422
  Ewald energy   TEWEN  =     99959.28646308
  -Hartree energ DENC   =   -144423.48407987
  -exchange      EXHF   =         0.00000000
  -V(xc)+E(xc)   XCENC  =      1629.87234429
  PAW double counting   =     45958.63208789   -49716.43495519
  entropy T*S    EENTRO =         0.00000000
  eigenvalues    EBANDS =     -2162.99559305
  atomic energy  EATOM  =     48682.74546302
  Solvation  Ediel_sol  =         0.00000000
  ---------------------------------------------------
  free energy    TOTEN  =         6.12428438 eV

  energy without entropy =        6.12428438  energy(sigma->0) =        6.12428438


--------------------------------------------------------------------------------------------------------




--------------------------------------- Iteration      1(  14)  ---------------------------------------


    POTLOK:  cpu time    0.3280: real time    0.3468
    SETDIJ:  cpu time    0.0080: real time    0.0075
     EDDAV:  cpu time    8.3760: real time    8.3792
       DOS:  cpu time    0.0040: real time    0.0006
    CHARGE:  cpu time    0.1600: real time    0.1601
    MIXING:  cpu time    0.0120: real time    0.0128
    --------------------------------------------
      LOOP:  cpu time    8.8880: real time    8.9071

 eigenvalue-minimisations  :  1544
 total energy-change (2. order) :-0.3360599E+02  (-0.2869725E+01)
 number of electron     384.9999849 magnetization      21.3101000
 augmentation part      245.9758043 magnetization      10.0528566

 Broyden mixing:
  rms(total) = 0.56792E+00    rms(broyden)= 0.56708E+00
  rms(prec ) = 0.58805E+00
  weight for this iteration     100.00

 eigenvalues of (default mixing * dielectric matrix)
  average eigenvalue GAMMA=   1.3171
  5.7478  1.6550  1.1334  0.7392  0.7392  0.5678  0.4528  0.4528  0.3661

 Free energy of the ion-electron system (eV)
  ---------------------------------------------------
  alpha Z        PSCENC =        78.50255422
  Ewald energy   TEWEN  =     99959.28646308
  -Hartree energ DENC   =   -144450.46618081
  -exchange      EXHF   =         0.00000000
  -V(xc)+E(xc)   XCENC  =      1606.48013403
  PAW double counting   =     45833.24886839   -49593.23963442
  entropy T*S    EENTRO =        -0.00000000
  eigenvalues    EBANDS =     -2144.03937743
  atomic energy  EATOM  =     48682.74546302
  Solvation  Ediel_sol  =         0.00000000
  ---------------------------------------------------
  free energy    TOTEN  =       -27.48170991 eV

  energy without entropy =      -27.48170991  energy(sigma->0) =      -27.48170991


--------------------------------------------------------------------------------------------------------




--------------------------------------- Iteration      1(  15)  ---------------------------------------


    POTLOK:  cpu time    0.3280: real time    0.3427
    SETDIJ:  cpu time    0.0080: real time    0.0084
     EDDAV:  cpu time    8.2240: real time    8.2240
       DOS:  cpu time    0.0000: real time    0.0007
    CHARGE:  cpu time    0.1600: real time    0.1599
    MIXING:  cpu time    0.0120: real time    0.0142
    --------------------------------------------
      LOOP:  cpu time    8.7320: real time    8.7498

 eigenvalue-minimisations  :  1504
 total energy-change (2. order) :-0.1679568E+02  (-0.1320985E+01)
 number of electron     384.9999853 magnetization      14.1956047
 augmentation part      245.9762937 magnetization       7.6414219

 Broyden mixing:
  rms(total) = 0.47918E+00    rms(broyden)= 0.47843E+00
  rms(prec ) = 0.49215E+00
  weight for this iteration     100.00

 eigenvalues of (default mixing * dielectric matrix)
  average eigenvalue GAMMA=   1.3244
  6.4582  1.7119  1.2134  0.7275  0.7275  0.5851  0.5851  0.4514  0.4429  0.3414

 Free energy of the ion-electron system (eV)
  ---------------------------------------------------
  alpha Z        PSCENC =        78.50255422
  Ewald energy   TEWEN  =     99959.28646308
  -Hartree energ DENC   =   -144452.81227280
  -exchange      EXHF   =         0.00000000
  -V(xc)+E(xc)   XCENC  =      1594.48290712
  PAW double counting   =     45776.68482173   -49534.97151428
  entropy T*S    EENTRO =         0.00000000
  eigenvalues    EBANDS =     -2148.19581201
  atomic energy  EATOM  =     48682.74546302
  Solvation  Ediel_sol  =         0.00000000
  ---------------------------------------------------
  free energy    TOTEN  =       -44.27738992 eV

  energy without entropy =      -44.27738992  energy(sigma->0) =      -44.27738992


--------------------------------------------------------------------------------------------------------




--------------------------------------- Iteration      1(  16)  ---------------------------------------


    POTLOK:  cpu time    0.3440: real time    0.3456
    SETDIJ:  cpu time    0.0080: real time    0.0076
     EDDAV:  cpu time    7.6280: real time    7.6282
       DOS:  cpu time    0.0000: real time    0.0007
    CHARGE:  cpu time    0.1600: real time    0.1589
    MIXING:  cpu time    0.0120: real time    0.0145
    --------------------------------------------
      LOOP:  cpu time    8.1520: real time    8.1555

 eigenvalue-minimisations  :  1368
 total energy-change (2. order) :-0.1482109E+02  (-0.1067194E+01)
 number of electron     384.9999851 magnetization      10.1871570
 augmentation part      246.3021340 magnetization       6.8227921

 Broyden mixing:
  rms(total) = 0.36879E+00    rms(broyden)= 0.36820E+00
  rms(prec ) = 0.38333E+00
  weight for this iteration     100.00

 eigenvalues of (default mixing * dielectric matrix)
  average eigenvalue GAMMA=   1.3805
  7.2229  1.9680  1.0182  1.0182  0.8316  0.8316  0.5300  0.5300  0.4768  0.3974
  0.3609

 Free energy of the ion-electron system (eV)
  ---------------------------------------------------
  alpha Z        PSCENC =        78.50255422
  Ewald energy   TEWEN  =     99959.28646308
  -Hartree energ DENC   =   -144453.20685877
  -exchange      EXHF   =         0.00000000
  -V(xc)+E(xc)   XCENC  =      1583.35726351
  PAW double counting   =     45712.47136750   -49467.95166726
  entropy T*S    EENTRO =         0.00000000
  eigenvalues    EBANDS =     -2154.30306320
  atomic energy  EATOM  =     48682.74546302
  Solvation  Ediel_sol  =         0.00000000
  ---------------------------------------------------
  free energy    TOTEN  =       -59.09847790 eV

  energy without entropy =      -59.09847790  energy(sigma->0) =      -59.09847790


--------------------------------------------------------------------------------------------------------




--------------------------------------- Iteration      1(  17)  ---------------------------------------


    POTLOK:  cpu time    0.3280: real time    0.3406
    SETDIJ:  cpu time    0.0080: real time    0.0076
     EDDAV:  cpu time    8.4760: real time    8.4767
       DOS:  cpu time    0.0040: real time    0.0007
    CHARGE:  cpu time    0.1600: real time    0.1600
    MIXING:  cpu time    0.0120: real time    0.0146
    --------------------------------------------
      LOOP:  cpu time    8.9880: real time    9.0002

 eigenvalue-minimisations  :  1560
 total energy-change (2. order) :-0.1136571E+02  (-0.6304540E+00)
 number of electron     384.9999851 magnetization       8.2840112
 augmentation part      246.2545244 magnetization       6.0271813

 Broyden mixing:
  rms(total) = 0.30436E+00    rms(broyden)= 0.30426E+00
  rms(prec ) = 0.31830E+00
  weight for this iteration     100.00

 eigenvalues of (default mixing * dielectric matrix)
  average eigenvalue GAMMA=   1.4631
  7.9823  2.5471  1.2522  1.2522  0.7861  0.7861  0.6365  0.6365  0.4665  0.4665
  0.3725  0.3725

 Free energy of the ion-electron system (eV)
  ---------------------------------------------------
  alpha Z        PSCENC =        78.50255422
  Ewald energy   TEWEN  =     99959.28646308
  -Hartree energ DENC   =   -144441.20025922
  -exchange      EXHF   =         0.00000000
  -V(xc)+E(xc)   XCENC  =      1574.68669202
  PAW double counting   =     45620.91851962   -49375.51197753
  entropy T*S    EENTRO =         0.00000000
  eigenvalues    EBANDS =     -2169.89163873
  atomic energy  EATOM  =     48682.74546302
  Solvation  Ediel_sol  =         0.00000000
  ---------------------------------------------------
  free energy    TOTEN  =       -70.46418353 eV

  energy without entropy =      -70.46418353  energy(sigma->0) =      -70.46418353


--------------------------------------------------------------------------------------------------------




--------------------------------------- Iteration      1(  18)  ---------------------------------------


    POTLOK:  cpu time    0.3280: real time    0.3384
    SETDIJ:  cpu time    0.0080: real time    0.0077
     EDDAV:  cpu time    8.5240: real time    8.5224
       DOS:  cpu time    0.0000: real time    0.0006
    CHARGE:  cpu time    0.1600: real time    0.1603
    MIXING:  cpu time    0.0160: real time    0.0154
    --------------------------------------------
      LOOP:  cpu time    9.0360: real time    9.0449

 eigenvalue-minimisations  :  1568
 total energy-change (2. order) :-0.9726735E+01  (-0.3792658E+00)
 number of electron     384.9999850 magnetization       6.1014867
 augmentation part      246.2925877 magnetization       4.5477304

 Broyden mixing:
  rms(total) = 0.22243E+00    rms(broyden)= 0.22236E+00
  rms(prec ) = 0.23193E+00
  weight for this iteration     100.00

 eigenvalues of (default mixing * dielectric matrix)
  average eigenvalue GAMMA=   1.4992
  8.6079  2.9683  1.3531  1.3531  0.7486  0.7486  0.7491  0.7491  0.5633  0.4513
  0.4513  0.3773  0.3683

 Free energy of the ion-electron system (eV)
  ---------------------------------------------------
  alpha Z        PSCENC =        78.50255422
  Ewald energy   TEWEN  =     99959.28646308
  -Hartree energ DENC   =   -144406.54807789
  -exchange      EXHF   =         0.00000000
  -V(xc)+E(xc)   XCENC  =      1566.45035981
  PAW double counting   =     45500.36898811   -49254.44707987
  entropy T*S    EENTRO =         0.00000000
  eigenvalues    EBANDS =     -2206.54958901
  atomic energy  EATOM  =     48682.74546302
  Solvation  Ediel_sol  =         0.00000000
  ---------------------------------------------------
  free energy    TOTEN  =       -80.19091853 eV

  energy without entropy =      -80.19091853  energy(sigma->0) =      -80.19091853


--------------------------------------------------------------------------------------------------------




--------------------------------------- Iteration      1(  19)  ---------------------------------------


    POTLOK:  cpu time    0.3280: real time    0.3400
    SETDIJ:  cpu time    0.0040: real time    0.0075
     EDDAV:  cpu time    8.4520: real time    8.4515
       DOS:  cpu time    0.0000: real time    0.0006
    CHARGE:  cpu time    0.1600: real time    0.1593
    MIXING:  cpu time    0.0160: real time    0.0162
    --------------------------------------------
      LOOP:  cpu time    8.9600: real time    8.9751

 eigenvalue-minimisations  :  1552
 total energy-change (2. order) :-0.7579113E+01  (-0.1954886E+00)
 number of electron     384.9999848 magnetization       4.6700420
 augmentation part      246.3962501 magnetization       3.5487939

 Broyden mixing:
  rms(total) = 0.15415E+00    rms(broyden)= 0.15409E+00
  rms(prec ) = 0.16103E+00
  weight for this iteration     100.00

 eigenvalues of (default mixing * dielectric matrix)
  average eigenvalue GAMMA=   1.5260
  9.0117  3.2311  1.4096  1.4096  1.2567  0.7671  0.7671  0.7417  0.5631  0.5631
  0.4834  0.4101  0.3849  0.3639

 Free energy of the ion-electron system (eV)
  ---------------------------------------------------
  alpha Z        PSCENC =        78.50255422
  Ewald energy   TEWEN  =     99959.28646308
  -Hartree energ DENC   =   -144374.11691854
  -exchange      EXHF   =         0.00000000
  -V(xc)+E(xc)   XCENC  =      1559.49546499
  PAW double counting   =     45418.36818521   -49172.49780751
  entropy T*S    EENTRO =         0.00000000
  eigenvalues    EBANDS =     -2239.55343640
  atomic energy  EATOM  =     48682.74546302
  Solvation  Ediel_sol  =         0.00000000
  ---------------------------------------------------
  free energy    TOTEN  =       -87.77003193 eV

  energy without entropy =      -87.77003193  energy(sigma->0) =      -87.77003193


--------------------------------------------------------------------------------------------------------




--------------------------------------- Iteration      1(  20)  ---------------------------------------


    POTLOK:  cpu time    0.3280: real time    0.3402
    SETDIJ:  cpu time    0.0080: real time    0.0074
     EDDAV:  cpu time    8.0880: real time    8.0896
       DOS:  cpu time    0.0000: real time    0.0007
    CHARGE:  cpu time    0.1600: real time    0.1585
    MIXING:  cpu time    0.0160: real time    0.0177
    --------------------------------------------
      LOOP:  cpu time    8.6000: real time    8.6143

 eigenvalue-minimisations  :  1472
 total energy-change (2. order) :-0.4276353E+01  (-0.7595949E-01)
 number of electron     384.9999849 magnetization       3.5643546
 augmentation part      246.2953019 magnetization       2.5572260

 Broyden mixing:
  rms(total) = 0.11585E+00    rms(broyden)= 0.11583E+00
  rms(prec ) = 0.12386E+00
  weight for this iteration     100.00

 eigenvalues of (default mixing * dielectric matrix)
  average eigenvalue GAMMA=   1.5463
  9.3887  3.6415  1.4630  1.4630  1.5003  0.7688  0.7688  0.7403  0.6770  0.6770
  0.4762  0.4762  0.4094  0.3726  0.3712

 Free energy of the ion-electron system (eV)
  ---------------------------------------------------
  alpha Z        PSCENC =        78.50255422
  Ewald energy   TEWEN  =     99959.28646308
  -Hartree energ DENC   =   -144357.79273270
  -exchange      EXHF   =         0.00000000
  -V(xc)+E(xc)   XCENC  =      1555.58572505
  PAW double counting   =     45405.38785374   -49161.43729680
  entropy T*S    EENTRO =         0.00000000
  eigenvalues    EBANDS =     -2254.32441445
  atomic energy  EATOM  =     48682.74546302
  Solvation  Ediel_sol  =         0.00000000
  ---------------------------------------------------
  free energy    TOTEN  =       -92.04638484 eV

  energy without entropy =      -92.04638484  energy(sigma->0) =      -92.04638484


--------------------------------------------------------------------------------------------------------




--------------------------------------- Iteration      1(  21)  ---------------------------------------


    POTLOK:  cpu time    0.3440: real time    0.3418
    SETDIJ:  cpu time    0.0080: real time    0.0076
     EDDAV:  cpu time    7.6960: real time    7.6995
       DOS:  cpu time    0.0040: real time    0.0006
    CHARGE:  cpu time    0.1560: real time    0.1581
    MIXING:  cpu time    0.0200: real time    0.0181
    --------------------------------------------
      LOOP:  cpu time    8.2280: real time    8.2257

 eigenvalue-minimisations  :  1384
 total energy-change (2. order) :-0.2986524E+01  (-0.3613849E-01)
 number of electron     384.9999849 magnetization       2.5289801
 augmentation part      246.3020271 magnetization       1.5799302

 Broyden mixing:
  rms(total) = 0.74071E-01    rms(broyden)= 0.74046E-01
  rms(prec ) = 0.80305E-01
  weight for this iteration     100.00

 eigenvalues of (default mixing * dielectric matrix)
  average eigenvalue GAMMA=   1.6000
  9.9863  4.2395  2.0216  1.3857  1.3857  0.8939  0.8939  0.7762  0.7762  0.5904
  0.5904  0.4760  0.3656  0.3830  0.4180  0.4180

 Free energy of the ion-electron system (eV)
  ---------------------------------------------------
  alpha Z        PSCENC =        78.50255422
  Ewald energy   TEWEN  =     99959.28646308
  -Hartree energ DENC   =   -144329.91813647
  -exchange      EXHF   =         0.00000000
  -V(xc)+E(xc)   XCENC  =      1552.48496806
  PAW double counting   =     45381.80373388   -49138.77622236
  entropy T*S    EENTRO =         0.00000000
  eigenvalues    EBANDS =     -2281.16173273
  atomic energy  EATOM  =     48682.74546302
  Solvation  Ediel_sol  =         0.00000000
  ---------------------------------------------------
  free energy    TOTEN  =       -95.03290930 eV

  energy without entropy =      -95.03290930  energy(sigma->0) =      -95.03290930


--------------------------------------------------------------------------------------------------------




--------------------------------------- Iteration      1(  22)  ---------------------------------------


    POTLOK:  cpu time    0.3360: real time    0.3438
    SETDIJ:  cpu time    0.0080: real time    0.0074
     EDDAV:  cpu time    8.4000: real time    8.4007
       DOS:  cpu time    0.0040: real time    0.0006
    CHARGE:  cpu time    0.1560: real time    0.1583
    MIXING:  cpu time    0.0200: real time    0.0187
    --------------------------------------------
      LOOP:  cpu time    8.9240: real time    8.9296

 eigenvalue-minimisations  :  1544
 total energy-change (2. order) :-0.1876541E+01  (-0.1723707E-01)
 number of electron     384.9999849 magnetization       1.9512871
 augmentation part      246.3802020 magnetization       1.0601853

 Broyden mixing:
  rms(total) = 0.47877E-01    rms(broyden)= 0.47850E-01
  rms(prec ) = 0.52484E-01
  weight for this iteration     100.00

 eigenvalues of (default mixing * dielectric matrix)
  average eigenvalue GAMMA=   1.6162
 10.3826  4.4715  2.4067  1.4289  1.4289  1.0509  0.7698  0.7698  0.7916  0.7916
  0.5701  0.5701  0.3646  0.3846  0.4359  0.4359  0.4218

 Free energy of the ion-electron system (eV)
  ---------------------------------------------------
  alpha Z        PSCENC =        78.50255422
  Ewald energy   TEWEN  =     99959.28646308
  -Hartree energ DENC   =   -144303.20864788
  -exchange      EXHF   =         0.00000000
  -V(xc)+E(xc)   XCENC  =      1550.36172774
  PAW double counting   =     45364.52440449   -49121.66997041
  entropy T*S    EENTRO =        -0.00000000
  eigenvalues    EBANDS =     -2307.45144459
  atomic energy  EATOM  =     48682.74546302
  Solvation  Ediel_sol  =         0.00000000
  ---------------------------------------------------
  free energy    TOTEN  =       -96.90945034 eV

  energy without entropy =      -96.90945034  energy(sigma->0) =      -96.90945034


--------------------------------------------------------------------------------------------------------




--------------------------------------- Iteration      1(  23)  ---------------------------------------


    POTLOK:  cpu time    0.3280: real time    0.3429
    SETDIJ:  cpu time    0.0080: real time    0.0077
     EDDAV:  cpu time    7.6920: real time    7.6938
       DOS:  cpu time    0.0000: real time    0.0007
    CHARGE:  cpu time    0.1600: real time    0.1589
    MIXING:  cpu time    0.0200: real time    0.0192
    --------------------------------------------
      LOOP:  cpu time    8.2080: real time    8.2232

 eigenvalue-minimisations  :  1380
 total energy-change (2. order) :-0.6792384E+00  (-0.3020278E-02)
 number of electron     384.9999849 magnetization       1.5482798
 augmentation part      246.3659220 magnetization       0.6716339

 Broyden mixing:
  rms(total) = 0.30591E-01    rms(broyden)= 0.30581E-01
  rms(prec ) = 0.34107E-01
  weight for this iteration     100.00

 eigenvalues of (default mixing * dielectric matrix)
  average eigenvalue GAMMA=   1.6140
 10.5780  4.4891  2.7983  1.4786  1.4786  1.0752  1.0752  0.7604  0.7604  0.7910
  0.6274  0.6274  0.4708  0.4708  0.3647  0.3834  0.4109  0.4109

 Free energy of the ion-electron system (eV)
  ---------------------------------------------------
  alpha Z        PSCENC =        78.50255422
  Ewald energy   TEWEN  =     99959.28646308
  -Hartree energ DENC   =   -144294.08682492
  -exchange      EXHF   =         0.00000000
  -V(xc)+E(xc)   XCENC  =      1549.66304425
  PAW double counting   =     45374.97853696   -49132.57785260
  entropy T*S    EENTRO =         0.00000000
  eigenvalues    EBANDS =     -2316.10007278
  atomic energy  EATOM  =     48682.74546302
  Solvation  Ediel_sol  =         0.00000000
  ---------------------------------------------------
  free energy    TOTEN  =       -97.58868877 eV

  energy without entropy =      -97.58868877  energy(sigma->0) =      -97.58868877


--------------------------------------------------------------------------------------------------------




--------------------------------------- Iteration      1(  24)  ---------------------------------------


    POTLOK:  cpu time    0.3280: real time    0.3435
    SETDIJ:  cpu time    0.0080: real time    0.0076
     EDDAV:  cpu time    7.2920: real time    7.2931
       DOS:  cpu time    0.0000: real time    0.0006
    CHARGE:  cpu time    0.1560: real time    0.1578
    MIXING:  cpu time    0.0240: real time    0.0207
    --------------------------------------------
      LOOP:  cpu time    7.8080: real time    7.8233

 eigenvalue-minimisations  :  1288
 total energy-change (2. order) :-0.5386292E+00  (-0.1788550E-02)
 number of electron     384.9999849 magnetization       1.3159504
 augmentation part      246.3174574 magnetization       0.4320563

 Broyden mixing:
  rms(total) = 0.19318E-01    rms(broyden)= 0.19311E-01
  rms(prec ) = 0.22217E-01
  weight for this iteration     100.00

 eigenvalues of (default mixing * dielectric matrix)
  average eigenvalue GAMMA=   1.6279
 10.7369  4.7779  2.9078  1.9092  1.3847  1.3847  0.9289  0.9289  0.7657  0.7657
  0.7602  0.5976  0.5976  0.4570  0.4570  0.3645  0.4110  0.4110  0.3844

 Free energy of the ion-electron system (eV)
  ---------------------------------------------------
  alpha Z        PSCENC =        78.50255422
  Ewald energy   TEWEN  =     99959.28646308
  -Hartree energ DENC   =   -144287.75332522
  -exchange      EXHF   =         0.00000000
  -V(xc)+E(xc)   XCENC  =      1549.15748205
  PAW double counting   =     45392.83698478   -49150.98315309
  entropy T*S    EENTRO =         0.00000000
  eigenvalues    EBANDS =     -2321.91978685
  atomic energy  EATOM  =     48682.74546302
  Solvation  Ediel_sol  =         0.00000000
  ---------------------------------------------------
  free energy    TOTEN  =       -98.12731801 eV

  energy without entropy =      -98.12731801  energy(sigma->0) =      -98.12731801


--------------------------------------------------------------------------------------------------------




--------------------------------------- Iteration      1(  25)  ---------------------------------------


    POTLOK:  cpu time    0.3280: real time    0.3458
    SETDIJ:  cpu time    0.0040: real time    0.0075
     EDDAV:  cpu time    8.0880: real time    8.0878
       DOS:  cpu time    0.0040: real time    0.0006
    CHARGE:  cpu time    0.1560: real time    0.1592
    MIXING:  cpu time    0.0240: real time    0.0216
    --------------------------------------------
      LOOP:  cpu time    8.6040: real time    8.6226

 eigenvalue-minimisations  :  1468
 total energy-change (2. order) :-0.3100134E+00  (-0.7623209E-03)
 number of electron     384.9999849 magnetization       1.2429684
 augmentation part      246.3351943 magnetization       0.3693654

 Broyden mixing:
  rms(total) = 0.11593E-01    rms(broyden)= 0.11589E-01
  rms(prec ) = 0.14121E-01
  weight for this iteration     100.00

 eigenvalues of (default mixing * dielectric matrix)
  average eigenvalue GAMMA=   1.6197
 10.7576  5.0408  3.0760  2.0607  1.4197  1.4197  1.0069  1.0069  0.7594  0.7594
  0.8116  0.6255  0.6255  0.5364  0.4564  0.4564  0.3644  0.3847  0.4130  0.4130

 Free energy of the ion-electron system (eV)
  ---------------------------------------------------
  alpha Z        PSCENC =        78.50255422
  Ewald energy   TEWEN  =     99959.28646308
  -Hartree energ DENC   =   -144279.54345862
  -exchange      EXHF   =         0.00000000
  -V(xc)+E(xc)   XCENC  =      1548.77396559
  PAW double counting   =     45393.27621881   -49151.21947319
  entropy T*S    EENTRO =         0.00000000
  eigenvalues    EBANDS =     -2330.25906434
  atomic energy  EATOM  =     48682.74546302
  Solvation  Ediel_sol  =         0.00000000
  ---------------------------------------------------
  free energy    TOTEN  =       -98.43733145 eV

  energy without entropy =      -98.43733145  energy(sigma->0) =      -98.43733145


--------------------------------------------------------------------------------------------------------




--------------------------------------- Iteration      1(  26)  ---------------------------------------


    POTLOK:  cpu time    0.3400: real time    0.3457
    SETDIJ:  cpu time    0.0080: real time    0.0077
     EDDAV:  cpu time    8.2800: real time    8.2814
       DOS:  cpu time    0.0000: real time    0.0006
    CHARGE:  cpu time    0.1640: real time    0.1611
    MIXING:  cpu time    0.0200: real time    0.0220
    --------------------------------------------
      LOOP:  cpu time    8.8120: real time    8.8184

 eigenvalue-minimisations  :  1512
 total energy-change (2. order) :-0.1249702E+00  (-0.2504760E-03)
 number of electron     384.9999848 magnetization       1.1787651
 augmentation part      246.3498813 magnetization       0.2993173

 Broyden mixing:
  rms(total) = 0.66482E-02    rms(broyden)= 0.66457E-02
  rms(prec ) = 0.89552E-02
  weight for this iteration     100.00

 eigenvalues of (default mixing * dielectric matrix)
  average eigenvalue GAMMA=   1.6119
 10.8166  5.1733  3.1399  2.3497  1.3902  1.3902  1.1106  1.1106  0.7627  0.7627
  0.8221  0.8221  0.6027  0.6027  0.5260  0.4519  0.4519  0.3645  0.3836  0.4082
  0.4082

 Free energy of the ion-electron system (eV)
  ---------------------------------------------------
  alpha Z        PSCENC =        78.50255422
  Ewald energy   TEWEN  =     99959.28646308
  -Hartree energ DENC   =   -144274.55119746
  -exchange      EXHF   =         0.00000000
  -V(xc)+E(xc)   XCENC  =      1548.60373486
  PAW double counting   =     45395.57138244   -49153.34151377
  entropy T*S    EENTRO =         0.00000000
  eigenvalues    EBANDS =     -2335.37918799
  atomic energy  EATOM  =     48682.74546302
  Solvation  Ediel_sol  =         0.00000000
  ---------------------------------------------------
  free energy    TOTEN  =       -98.56230160 eV

  energy without entropy =      -98.56230160  energy(sigma->0) =      -98.56230160


--------------------------------------------------------------------------------------------------------




--------------------------------------- Iteration      1(  27)  ---------------------------------------


    POTLOK:  cpu time    0.3280: real time    0.3427
    SETDIJ:  cpu time    0.0080: real time    0.0074
     EDDAV:  cpu time    8.3760: real time    8.3752
       DOS:  cpu time    0.0000: real time    0.0007
    CHARGE:  cpu time    0.1600: real time    0.1598
    MIXING:  cpu time    0.0240: real time    0.0240
    --------------------------------------------
      LOOP:  cpu time    8.8960: real time    8.9097

 eigenvalue-minimisations  :  1536
 total energy-change (2. order) :-0.5893709E-01  (-0.1540054E-03)
 number of electron     384.9999849 magnetization       1.1483490
 augmentation part      246.3567659 magnetization       0.2646728

 Broyden mixing:
  rms(total) = 0.52510E-02    rms(broyden)= 0.52495E-02
  rms(prec ) = 0.68420E-02
  weight for this iteration     100.00

 eigenvalues of (default mixing * dielectric matrix)
  average eigenvalue GAMMA=   1.6060
 10.8231  5.2929  3.0321  2.7792  1.4099  1.4099  1.2447  1.2447  0.8866  0.8866
  0.7603  0.7603  0.6255  0.6255  0.5949  0.4806  0.4548  0.4548  0.3644  0.3847
  0.4084  0.4084

 Free energy of the ion-electron system (eV)
  ---------------------------------------------------
  alpha Z        PSCENC =        78.50255422
  Ewald energy   TEWEN  =     99959.28646308
  -Hartree energ DENC   =   -144270.62140310
  -exchange      EXHF   =         0.00000000
  -V(xc)+E(xc)   XCENC  =      1548.52244550
  PAW double counting   =     45399.01915924   -49156.68519720
  entropy T*S    EENTRO =         0.00000000
  eigenvalues    EBANDS =     -2339.39072346
  atomic energy  EATOM  =     48682.74546302
  Solvation  Ediel_sol  =         0.00000000
  ---------------------------------------------------
  free energy    TOTEN  =       -98.62123870 eV

  energy without entropy =      -98.62123870  energy(sigma->0) =      -98.62123870


--------------------------------------------------------------------------------------------------------




--------------------------------------- Iteration      1(  28)  ---------------------------------------


    POTLOK:  cpu time    0.3280: real time    0.3510
    SETDIJ:  cpu time    0.0080: real time    0.0076
     EDDAV:  cpu time    8.3080: real time    8.3062
       DOS:  cpu time    0.0000: real time    0.0007
    CHARGE:  cpu time    0.1600: real time    0.1601
    MIXING:  cpu time    0.0240: real time    0.0249
    --------------------------------------------
      LOOP:  cpu time    8.8280: real time    8.8506

 eigenvalue-minimisations  :  1520
 total energy-change (2. order) :-0.2341237E-01  (-0.7910882E-04)
 number of electron     384.9999849 magnetization       1.1078461
 augmentation part      246.3552627 magnetization       0.2247444

 Broyden mixing:
  rms(total) = 0.36306E-02    rms(broyden)= 0.36295E-02
  rms(prec ) = 0.48281E-02
  weight for this iteration     100.00

 eigenvalues of (default mixing * dielectric matrix)
  average eigenvalue GAMMA=   1.5956
 10.8265  5.3654  3.1579  2.9528  1.3897  1.3897  1.3788  1.3788  0.9620  0.9620
  0.7619  0.7619  0.6823  0.6237  0.6237  0.5418  0.4662  0.4545  0.4545  0.3644
  0.3840  0.4082  0.4082

 Free energy of the ion-electron system (eV)
  ---------------------------------------------------
  alpha Z        PSCENC =        78.50255422
  Ewald energy   TEWEN  =     99959.28646308
  -Hartree energ DENC   =   -144267.57235994
  -exchange      EXHF   =         0.00000000
  -V(xc)+E(xc)   XCENC  =      1548.49616363
  PAW double counting   =     45400.33750433   -49157.99575853
  entropy T*S    EENTRO =         0.00000000
  eigenvalues    EBANDS =     -2342.44468088
  atomic energy  EATOM  =     48682.74546302
  Solvation  Ediel_sol  =         0.00000000
  ---------------------------------------------------
  free energy    TOTEN  =       -98.64465107 eV

  energy without entropy =      -98.64465107  energy(sigma->0) =      -98.64465107


--------------------------------------------------------------------------------------------------------




--------------------------------------- Iteration      1(  29)  ---------------------------------------


    POTLOK:  cpu time    0.3480: real time    0.3473
    SETDIJ:  cpu time    0.0080: real time    0.0076
     EDDAV:  cpu time    8.3320: real time    8.3323
       DOS:  cpu time    0.0000: real time    0.0006
    CHARGE:  cpu time    0.1600: real time    0.1597
    MIXING:  cpu time    0.0240: real time    0.0267
    --------------------------------------------
      LOOP:  cpu time    8.8720: real time    8.8741

 eigenvalue-minimisations  :  1528
 total energy-change (2. order) :-0.1315681E-01  (-0.4944864E-04)
 number of electron     384.9999849 magnetization       1.0710513
 augmentation part      246.3494169 magnetization       0.1902268

 Broyden mixing:
  rms(total) = 0.23608E-02    rms(broyden)= 0.23600E-02
  rms(prec ) = 0.32343E-02
  weight for this iteration     100.00

 eigenvalues of (default mixing * dielectric matrix)
  average eigenvalue GAMMA=   1.5966
 10.8289  5.4276  3.6857  2.7626  1.8746  1.3949  1.3949  1.2011  1.2011  0.8635
  0.8635  0.7613  0.7613  0.6158  0.6158  0.6253  0.4972  0.4569  0.4569  0.4625
  0.3644  0.3842  0.4089  0.4089

 Free energy of the ion-electron system (eV)
  ---------------------------------------------------
  alpha Z        PSCENC =        78.50255422
  Ewald energy   TEWEN  =     99959.28646308
  -Hartree energ DENC   =   -144265.18185713
  -exchange      EXHF   =         0.00000000
  -V(xc)+E(xc)   XCENC  =      1548.48697227
  PAW double counting   =     45401.05977502   -49158.78766797
  entropy T*S    EENTRO =         0.00000000
  eigenvalues    EBANDS =     -2344.76951039
  atomic energy  EATOM  =     48682.74546302
  Solvation  Ediel_sol  =         0.00000000
  ---------------------------------------------------
  free energy    TOTEN  =       -98.65780788 eV

  energy without entropy =      -98.65780788  energy(sigma->0) =      -98.65780788


--------------------------------------------------------------------------------------------------------




--------------------------------------- Iteration      1(  30)  ---------------------------------------


    POTLOK:  cpu time    0.3360: real time    0.3384
    SETDIJ:  cpu time    0.0080: real time    0.0076
     EDDAV:  cpu time    8.2280: real time    8.2302
       DOS:  cpu time    0.0040: real time    0.0006
    CHARGE:  cpu time    0.1600: real time    0.1603
    MIXING:  cpu time    0.0280: real time    0.0281
    --------------------------------------------
      LOOP:  cpu time    8.7640: real time    8.7652

 eigenvalue-minimisations  :  1504
 total energy-change (2. order) :-0.8064789E-02  (-0.2670188E-04)
 number of electron     384.9999849 magnetization       1.0518927
 augmentation part      246.3486150 magnetization       0.1704717

 Broyden mixing:
  rms(total) = 0.19926E-02    rms(broyden)= 0.19922E-02
  rms(prec ) = 0.25496E-02
  weight for this iteration     100.00

 eigenvalues of (default mixing * dielectric matrix)
  average eigenvalue GAMMA=   1.5931
 10.8303  5.5292  3.9272  2.7995  1.9959  1.3795  1.3795  1.3030  1.3030  0.9421
[...]
 -0.003  -0.001  -0.000  -0.003  -0.000   0.000   0.000   0.000   0.000  -0.000  -0.009  -0.000   0.001   0.002   0.001   0.000
 -0.000  -0.001   0.000  -0.000   0.000   0.000  -0.000   0.000  -0.000   0.000  -0.000  -0.000   0.000   0.000   0.000   0.000
 -0.000  -0.001  -0.001  -0.000   0.000   0.000   0.000   0.000   0.000  -0.000  -0.001  -0.000   0.000   0.000   0.000   0.000
 -0.000  -0.000   0.000  -0.000  -0.000  -0.000  -0.000  -0.000  -0.000   0.000   0.000  -0.000   0.000  -0.000   0.000   0.000


------------------------ aborting loop because EDIFF is reached ----------------------------------------


 


 total charge     
 
# of ion       s       p       d       tot
------------------------------------------
    1        0.481   0.138   9.279   9.898
    2        0.474   0.241   9.235   9.950
    3        0.484   0.295   9.198   9.977
    4        0.476   0.235   9.236   9.947
    5        0.480   0.278   9.208   9.966
    6        0.485   0.199   9.248   9.932
    7        0.477   0.257   9.226   9.960
    8        0.477   0.251   9.218   9.946
    9        0.464   0.293   9.193   9.950
   10        0.474   0.251   9.215   9.940
   11        0.483   0.259   9.212   9.954
   12        0.490   0.206   9.243   9.939
   13        0.475   0.262   9.215   9.952
   14        0.482   0.251   9.218   9.951
   15        0.469   0.247   9.233   9.949
   16        0.479   0.248   9.227   9.954
   17        0.491   0.101   9.294   9.886
   18        0.472   0.248   9.228   9.948
   19        0.491   0.207   9.245   9.943
   20        0.490   0.198   9.247   9.935
   21        0.475   0.262   9.225   9.961
   22        0.482   0.251   9.224   9.957
   23        0.480   0.250   9.222   9.952
   24        0.483   0.242   9.223   9.948
   25        0.494   0.102   9.290   9.885
   26        0.476   0.247   9.222   9.945
   27        0.462   0.294   9.203   9.959
   28        0.483   0.255   9.207   9.946
   29        0.471   0.258   9.226   9.955
   30        0.487   0.272   9.207   9.966
   31        0.478   0.263   9.216   9.956
   32        0.486   0.196   9.251   9.932
   33        0.487   0.247   9.218   9.953
   34        0.476   0.253   9.223   9.952
   35        0.485   0.195   9.252   9.931
--------------------------------------------------
tot         16.799   8.249 323.027 348.074
 


 magnetization (x)
 
# of ion       s       p       d       tot
------------------------------------------
    1        0.041   0.004   0.005   0.050
    2       -0.000   0.003   0.010   0.013
    3        0.000   0.007   0.009   0.017
    4        0.001   0.011   0.005   0.017
    5        0.010   0.002   0.018   0.030
    6        0.010   0.005   0.005   0.019
    7        0.007   0.004   0.005   0.016
    8        0.003   0.001   0.001   0.005
    9        0.000   0.006   0.005   0.011
   10        0.007   0.003   0.005   0.016
   11        0.003   0.010   0.007   0.021
   12        0.002   0.007   0.015   0.023
   13        0.007   0.013   0.006   0.027
   14        0.009   0.003   0.004   0.016
   15       -0.000   0.001   0.007   0.008
   16       -0.001   0.005   0.002   0.006
   17       -0.000   0.000   0.003   0.003
   18        0.008   0.006   0.015   0.029
   19        0.001   0.006   0.014   0.021
   20        0.002   0.004   0.003   0.009
   21       -0.001   0.000   0.006   0.006
   22        0.000   0.000   0.004   0.004
   23        0.001   0.005  -0.001   0.004
   24        0.001   0.003   0.002   0.006
   25        0.025   0.004   0.011   0.040
   26       -0.000  -0.000   0.004   0.003
   27        0.002   0.007   0.015   0.024
   28        0.007   0.003   0.001   0.012
   29        0.005   0.005   0.000   0.010
   30       -0.000   0.002   0.007   0.009
   31       -0.000   0.002   0.003   0.004
   32        0.014   0.000   0.002   0.016
   33        0.001   0.002   0.003   0.006
   34        0.001   0.005   0.005   0.011
   35        0.004   0.004   0.004   0.012
--------------------------------------------------
tot          0.169   0.144   0.210   0.523
 
    CHARGE:  cpu time    0.1600: real time    0.1587
    FORLOC:  cpu time    0.0200: real time    0.0223
    FORNL :  cpu time    3.6240: real time    3.6234
    STRESS:  cpu time    6.0600: real time    6.0578
    FORCOR:  cpu time    0.3240: real time    0.3237
    FORHAR:  cpu time    0.0560: real time    0.0553
    MIXING:  cpu time    0.0520: real time    0.0546
    OFIELD:  cpu time    0.0000: real time    0.0001

  FORCE on cell =-STRESS in cart. coord.  units (eV):
  Direction    XX          YY          ZZ          XY          YZ          ZX
  --------------------------------------------------------------------------------------
  Alpha Z    78.50255    78.50255    78.50255
  Ewald   33687.63935 39062.43053 27209.14670  3116.80340  1177.91668 -2023.25450
  Hartree 48508.58751 53413.35242 42336.58360  2935.08073  1082.21103 -1892.36533
  E(xc)   -2245.74010 -2244.83457 -2246.16211     0.25107     0.20424    -0.14514
  Local  -85678.32377-95944.14046-73029.84923 -6049.99833 -2259.51760  3911.54796
  n-local  -807.57919  -806.67790  -808.41117    -0.00794     0.55558     0.24269
  augment  3293.42680  3286.26973  3295.21064    -1.38647    -0.78762     1.71445
  Kinetic  3153.18374  3145.05245  3155.02815    -0.80700    -0.67613     2.19956
  Fock        0.00000     0.00000     0.00000     0.00000     0.00000     0.00000
  -------------------------------------------------------------------------------------
  Total     -10.30310   -10.04523    -9.95085    -0.06454    -0.09382    -0.06031
  in kB      -1.44649    -1.41028    -1.39703    -0.00906    -0.01317    -0.00847
  external pressure =       -1.42 kB  Pullay stress =        0.00 kB


 VOLUME and BASIS-vectors are now :
 -----------------------------------------------------------------------------
  energy-cutoff  :      295.45
  volume of cell :    11412.07
      direct lattice vectors                 reciprocal lattice vectors
    22.514113000  0.000000000  0.000000000     0.044416584  0.000000000  0.000000000
     0.000000000 22.514113000  0.000000000     0.000000000  0.044416584  0.000000000
     0.000000000  0.000000000 22.514113000     0.000000000  0.000000000  0.044416584

  length of vectors
    22.514113000 22.514113000 22.514113000     0.044416584  0.044416584  0.044416584


 FORCES acting on ions
    electron-ion (+dipol)            ewald-force                    non-local-force                 convergence-correction
 -----------------------------------------------------------------------------------------------
   -.493E+03 0.110E+04 0.148E+04   0.490E+03 -.109E+04 -.147E+04   0.321E+01 -.628E+01 -.870E+01   -.891E-04 0.240E-03 0.173E-03
   -.700E+03 0.156E+04 0.515E+03   0.697E+03 -.156E+04 -.513E+03   0.226E+01 -.509E+01 -.167E+01   -.397E-04 0.421E-03 -.437E-04
   0.407E+03 0.876E+03 0.978E+03   -.409E+03 -.875E+03 -.976E+03   0.204E+01 -.820E+00 -.208E+01   -.694E-04 0.220E-03 0.138E-03
   -.145E+03 0.128E+03 0.177E+04   0.145E+03 -.127E+03 -.177E+04   -.630E-01 -.925E+00 -.614E+01   0.157E-04 0.986E-04 0.332E-03
   -.115E+04 0.419E+03 0.831E+03   0.115E+04 -.417E+03 -.828E+03   -.309E-01 -.176E+01 -.244E+01   -.899E-04 0.235E-03 0.176E-03
   -.671E+03 0.166E+04 -.532E+03   0.668E+03 -.166E+04 0.530E+03   0.299E+01 -.775E+01 0.213E+01   0.470E-05 0.424E-03 0.111E-03
   0.283E+03 0.141E+04 0.156E+03   -.283E+03 -.141E+04 -.156E+03   -.799E-01 -.207E+01 0.338E+00   -.358E-04 0.360E-03 -.602E-04
   -.131E+04 0.802E+03 -.856E+02   0.131E+04 -.800E+03 0.847E+02   0.126E+01 -.177E+01 0.854E+00   -.832E-04 0.360E-03 0.322E-04
   0.875E+03 0.626E+03 0.727E+03   -.873E+03 -.625E+03 -.729E+03   -.222E+01 -.508E+00 0.187E+01   -.225E-04 0.576E-04 -.662E-04
   0.789E+03 0.222E+02 0.118E+04   -.789E+03 -.229E+02 -.117E+04   0.404E+00 0.625E+00 -.229E+01   0.109E-04 -.729E-05 0.145E-03
   -.916E+03 -.420E+03 0.119E+04   0.916E+03 0.420E+03 -.118E+04   0.388E+00 0.136E+00 -.316E+01   -.561E-04 -.159E-03 0.185E-03
   0.194E+03 -.801E+03 0.168E+04   -.193E+03 0.797E+03 -.168E+04   -.776E+00 0.416E+01 -.748E+01   -.387E-05 -.207E-03 0.242E-03
   -.141E+04 0.544E+01 0.281E+03   0.141E+04 -.619E+01 -.282E+03   0.196E+01 0.748E+00 0.874E+00   -.209E-03 -.219E-03 -.576E-04
   0.187E+03 0.124E+04 -.106E+04   -.188E+03 -.124E+04 0.106E+04   0.715E+00 -.182E+01 0.269E+01   0.538E-05 0.268E-03 -.676E-04
   0.952E+03 0.138E+04 -.575E+03   -.949E+03 -.138E+04 0.573E+03   -.322E+01 -.464E+01 0.189E+01   -.711E-04 0.189E-03 -.127E-03
   -.831E+03 0.764E+03 -.115E+04   0.829E+03 -.763E+03 0.115E+04   0.116E+01 -.944E+00 0.172E+01   -.501E-05 0.315E-03 -.137E-03
   0.145E+04 0.977E+03 0.452E+03   -.144E+04 -.970E+03 -.445E+03   -.835E+01 -.635E+01 -.631E+01   0.375E-03 0.132E-03 -.883E-04
   -.131E+04 -.891E+03 0.743E+03   0.130E+04 0.887E+03 -.740E+03   0.429E+01 0.336E+01 -.280E+01   -.871E-04 -.176E-03 -.286E-05
   -.161E+04 0.184E+03 -.858E+03   0.161E+04 -.183E+03 0.853E+03   0.815E+01 -.569E+00 0.416E+01   -.440E-03 -.689E-04 -.425E-04
   0.109E+02 0.418E+03 -.180E+04   -.104E+02 -.416E+03 0.179E+04   -.585E+00 -.233E+01 0.879E+01   0.837E-04 0.203E-03 -.338E-03
   0.170E+04 0.181E+03 -.368E+03   -.170E+04 -.180E+03 0.366E+03   -.592E+01 -.124E+01 0.166E+01   0.264E-03 -.257E-04 -.108E-03
   -.168E+03 -.123E+04 0.837E+03   0.168E+03 0.123E+04 -.836E+03   0.359E+00 0.104E+01 -.107E+01   0.951E-04 -.321E-03 0.867E-04
   0.137E+04 -.273E+03 0.597E+03   -.136E+04 0.273E+03 -.596E+03   -.260E+01 0.873E-01 -.118E+01   0.219E-03 -.175E-03 -.577E-05
   0.845E+03 -.100E+04 0.961E+03   -.843E+03 0.998E+03 -.960E+03   -.157E+01 0.267E+01 -.163E+01   0.627E-04 -.333E-03 -.361E-04
   -.132E+04 -.115E+04 -.357E+03   0.131E+04 0.115E+04 0.353E+03   0.947E+01 0.585E+01 0.418E+01   -.198E-03 -.195E-03 0.122E-05
   0.868E+03 0.382E+03 -.116E+04   -.867E+03 -.381E+03 0.116E+04   -.551E+00 -.105E+01 0.140E+01   0.151E-03 0.422E-04 -.136E-03
   -.106E+04 -.558E+03 -.737E+03   0.106E+04 0.557E+03 0.738E+03   0.807E+00 0.145E+01 -.683E+00   -.229E-03 -.145E-03 0.992E-04
   -.600E+03 -.246E+03 -.131E+04   0.599E+03 0.247E+03 0.131E+04   0.580E+00 -.106E+01 0.176E+01   0.674E-04 -.121E-03 -.249E-03
   -.364E+03 -.169E+04 -.161E+03   0.362E+03 0.169E+04 0.161E+03   0.142E+01 0.566E+01 -.157E-01   -.564E-04 -.251E-03 0.604E-04
   0.128E+04 -.405E+03 -.753E+03   -.128E+04 0.402E+03 0.752E+03   -.818E+00 0.268E+01 0.887E+00   0.170E-03 -.224E-03 -.117E-03
   0.390E+03 -.149E+04 0.330E+02   -.387E+03 0.149E+04 -.333E+02   -.261E+01 0.134E+01 0.329E+00   0.206E-03 -.174E-03 0.982E-04
   0.143E+04 -.120E+04 0.127E+03   -.142E+04 0.120E+04 -.127E+03   -.719E+01 0.479E+01 -.932E+00   0.105E-03 -.187E-03 -.961E-04
   -.190E+03 -.105E+04 -.107E+04   0.190E+03 0.105E+04 0.107E+04   -.172E+00 0.252E+01 0.182E+01   0.114E-03 -.269E-03 -.105E-03
   0.405E+03 -.423E+03 -.145E+04   -.404E+03 0.422E+03 0.145E+04   -.242E+00 0.541E+00 0.245E+01   0.173E-03 -.145E-03 -.176E-03
   0.806E+03 -.130E+04 -.108E+04   -.804E+03 0.129E+04 0.108E+04   -.271E+01 0.681E+01 0.507E+01   0.166E-03 -.161E-03 0.386E-04
 -----------------------------------------------------------------------------------------------
   -.166E+01 0.251E+01 0.366E+01   -.227E-11 -.273E-11 0.341E-11   0.176E+01 -.252E+01 -.371E+01   0.503E-03 0.947E-06 -.142E-03
 
 
 POSITION                                       TOTAL-FORCE (eV/Angst)
 -----------------------------------------------------------------------------------
     12.63779      8.32584      7.50750         0.011889     -0.004610     -0.011816
     12.76311      7.74434      9.89679        -0.000198     -0.010296     -0.022454
     10.91912      9.07873      8.97827         0.027185      0.005316     -0.016961
     11.86515     10.68300      7.43531         0.011882      0.004456      0.015096
     13.46479      9.92672      9.12357        -0.005667     -0.015090      0.009583
     12.64684      7.40227     12.30908         0.007725     -0.001191      0.014641
     10.64031      7.94621     11.07583        -0.024743      0.021121     -0.013864
     13.94919      9.25128     11.43206        -0.009164      0.005957      0.005724
      8.88008      9.47011     10.18963         0.015425      0.008669      0.032322
      9.79176     11.22154      8.72675         0.026246      0.011373     -0.024182
     13.20584     12.31343      8.68846        -0.009786     -0.005338     -0.007823
     11.09954     12.96253      7.66119        -0.036325     -0.013423      0.020463
     14.35323     11.53630     10.68704        -0.037833     -0.002634      0.007193
     10.73721      8.34037     13.48064         0.021811      0.001144      0.007262
      8.59259      8.16893     12.31173         0.013256      0.029543      0.024585
     12.97224      9.36878     13.69098        -0.023054      0.007079      0.012488
      6.83991      8.28272     10.66931        -0.003187     -0.003244      0.007407
     14.29435     13.90100     10.17829        -0.004445     -0.021921      0.000825
     14.64586     10.96537     13.00212        -0.004211      0.003531      0.019999
     11.13137     10.15183     15.05397        -0.010838     -0.017989     -0.042447
      7.33621     10.21303     11.98798        -0.016166      0.001283     -0.038369
     11.92544     14.17591      9.57449         0.009014      0.019444      0.019891
      8.15632     11.84360     10.40658         0.016872      0.006815      0.001049
      9.53810     13.57550      9.40210         0.013297      0.003234     -0.023225
     15.16201     15.19876     12.00723         0.017709      0.024308     -0.027883
      9.11443     10.14962     13.69213         0.003486     -0.029880     -0.003588
     13.90359     13.21029     12.52655        -0.030741     -0.005550     -0.005448
     12.62067     11.78629     14.04765        -0.002151     -0.023901     -0.003034
     12.80176     15.21093     11.60374         0.007969      0.014651      0.018851
      8.26020     12.24240     12.83641        -0.020798      0.004284      0.026799
     10.44203     14.74787     11.38487         0.004765      0.024886      0.018109
      8.11871     14.10191     11.31181         0.007321     -0.011038     -0.022156
     11.69045     13.91784     13.33426         0.002933     -0.003016      0.011598
     10.21637     12.25595     14.32016         0.012445     -0.003732     -0.023641
      9.28043     14.32576     13.46250         0.008080     -0.024243      0.013005
 -----------------------------------------------------------------------------------
    total drift:                                0.098463     -0.009130     -0.055937


--------------------------------------------------------------------------------------------------------



  FREE ENERGIE OF THE ION-ELECTRON SYSTEM (eV)
  ---------------------------------------------------
  free  energy   TOTEN  =       -98.68153407 eV

  energy  without entropy=      -98.68153407  energy(sigma->0) =      -98.68153407
 


--------------------------------------------------------------------------------------------------------


    POTLOK:  cpu time    0.3360: real time    0.3355


--------------------------------------------------------------------------------------------------------




--------------------------------------------------------------------------------------------------------


  
 reached required accuracy - stopping structural energy minimisation
     LOOP+:  cpu time  348.1920: real time  349.3220
    4ORBIT:  cpu time    0.0000: real time    0.0000
 


 total charge     
 
# of ion       s       p       d       tot
------------------------------------------
    1        0.481   0.138   9.279   9.898
    2        0.474   0.241   9.235   9.950
    3        0.484   0.295   9.198   9.977
    4        0.476   0.235   9.236   9.947
    5        0.480   0.278   9.208   9.966
    6        0.485   0.199   9.248   9.932
    7        0.477   0.257   9.226   9.960
    8        0.477   0.251   9.218   9.946
    9        0.464   0.293   9.193   9.950
   10        0.474   0.251   9.215   9.940
   11        0.483   0.259   9.212   9.954
   12        0.490   0.206   9.243   9.939
   13        0.475   0.262   9.215   9.952
   14        0.482   0.251   9.218   9.951
   15        0.469   0.247   9.233   9.949
   16        0.479   0.248   9.227   9.954
   17        0.491   0.101   9.294   9.886
   18        0.472   0.248   9.228   9.948
   19        0.491   0.207   9.245   9.943
   20        0.490   0.198   9.247   9.935
   21        0.475   0.262   9.225   9.961
   22        0.482   0.251   9.224   9.957
   23        0.480   0.250   9.222   9.952
   24        0.483   0.242   9.223   9.948
   25        0.494   0.102   9.290   9.885
   26        0.476   0.247   9.222   9.945
   27        0.462   0.294   9.203   9.959
   28        0.483   0.255   9.207   9.946
   29        0.471   0.258   9.226   9.955
   30        0.487   0.272   9.207   9.966
   31        0.478   0.263   9.216   9.956
   32        0.486   0.196   9.251   9.932
   33        0.487   0.247   9.218   9.953
   34        0.476   0.253   9.223   9.952
   35        0.485   0.195   9.252   9.931
--------------------------------------------------
tot         16.799   8.249 323.027 348.074
 


 magnetization (x)
 
# of ion       s       p       d       tot
------------------------------------------
    1        0.041   0.004   0.005   0.050
    2       -0.000   0.003   0.010   0.013
    3        0.000   0.007   0.009   0.017
    4        0.001   0.011   0.005   0.017
    5        0.010   0.002   0.018   0.030
    6        0.010   0.005   0.005   0.019
    7        0.007   0.004   0.005   0.016
    8        0.003   0.001   0.001   0.005
    9        0.000   0.006   0.005   0.011
   10        0.007   0.003   0.005   0.016
   11        0.003   0.010   0.007   0.021
   12        0.002   0.007   0.015   0.023
   13        0.007   0.013   0.006   0.027
   14        0.009   0.003   0.004   0.016
   15       -0.000   0.001   0.007   0.008
   16       -0.001   0.005   0.002   0.006
   17       -0.000   0.000   0.003   0.003
   18        0.008   0.006   0.015   0.029
   19        0.001   0.006   0.014   0.021
   20        0.002   0.004   0.003   0.009
   21       -0.001   0.000   0.006   0.006
   22        0.000   0.000   0.004   0.004
   23        0.001   0.005  -0.001   0.004
   24        0.001   0.003   0.002   0.006
   25        0.025   0.004   0.011   0.040
   26       -0.000  -0.000   0.004   0.003
   27        0.002   0.007   0.015   0.024
   28        0.007   0.003   0.001   0.012
   29        0.005   0.005   0.000   0.010
   30       -0.000   0.002   0.007   0.009
   31       -0.000   0.002   0.003   0.004
   32        0.014   0.000   0.002   0.016
   33        0.001   0.002   0.003   0.006
   34        0.001   0.005   0.005   0.011
   35        0.004   0.004   0.004   0.012
--------------------------------------------------
tot          0.169   0.144   0.210   0.523
 

 total amount of memory used by VASP MPI-rank0    75893. kBytes
=======================================================================

   base      :      30000. kBytes
   nonl-proj :       4218. kBytes
   fftplans  :       7877. kBytes
   grid      :      20041. kBytes
   one-center:         62. kBytes
   wavefun   :      13695. kBytes
 
  
  
 General timing and accounting informations for this job:
 ========================================================
  
                  Total CPU time used (sec):      355.008
                            User time (sec):      352.472
                          System time (sec):        2.536
                         Elapsed time (sec):      356.217
  
                   Maximum memory used (kb):       39688.
                   Average memory used (kb):           0.
  
                          Minor page faults:        16665
                          Major page faults:           30
                 Voluntary context switches:          546
