 vasp.5.4.1 05Feb16 (build Apr 11 2020 03:28:46) gamma-only                     
  
 executed on           IFC91_ompi date 2022.05.04  07:57:42
 running on   24 total cores
 distrk:  each k-point on   24 cores,    1 groups
 distr:  one band on NCORES_PER_BAND=   6 cores,    4 groups


--------------------------------------------------------------------------------------------------------


 INCAR:
 POTCAR:    PAW_PBE Cu 22Jun2005                  
 POTCAR:    PAW_PBE Cu 22Jun2005                  
   VRHFIN =Cu: d10 p1                                                           
   LEXCH  = PE                                                                  
   EATOM  =  1390.9808 eV,  102.2342 Ry                                         
                                                                                
   TITEL  = PAW_PBE Cu 22Jun2005                                                
   LULTRA =        F    use ultrasoft PP ?                                      
   IUNSCR =        1    unscreen: 0-lin 1-nonlin 2-no                           
   RPACOR =    2.000    partial core radius                                     
   POMASS =   63.546; ZVAL   =   11.000    mass and valenz                      
   RCORE  =    2.300    outmost cutoff radius                                   
   RWIGS  =    2.200; RWIGS  =    1.164    wigner-seitz radius (au A)           
   ENMAX  =  295.446; ENMIN  =  221.585 eV                                      
   ICORE  =        3    local potential                                         
   LCOR   =        T    correct aug charges                                     
   LPAW   =        T    paw PP                                                  
   EAUG   =  586.980                                                            
   DEXC   =    0.000                                                            
   RMAX   =    2.344    core radius for proj-oper                               
   RAUG   =    1.300    factor for augmentation sphere                          
   RDEP   =    2.302    radius for radial grids                                 
   RDEPT  =    1.771    core radius for aug-charge                              
                                                                                
   Atomic configuration                                                         
    9 entries                                                                   
     n  l   j            E        occ.                                          
     1  0  0.50     -8850.2468   2.0000                                         
     2  0  0.50     -1062.3498   2.0000                                         
     2  1  1.50      -916.8226   6.0000                                         
     3  0  0.50      -114.6929   2.0000                                         
     3  1  1.50       -72.1325   6.0000                                         
     3  2  2.50        -5.0394  10.0000                                         
     4  0  0.50        -4.6097   1.0000                                         
     4  1  0.50        -4.0817   0.0000                                         
     4  3  2.50        -1.3606   0.0000                                         
   Description                                                                  
     l       E           TYP  RCUT    TYP  RCUT                                 
     2     -5.0393973     23  2.200                                             
     2     10.8846608     23  2.200                                             
     0     -4.6097109     23  2.200                                             
     0      8.2520465     23  2.200                                             
     1     -2.7211652     23  2.200                                             
     1     21.7055443     23  2.200                                             
     3      2.7211652     23  2.300                                             
  local pseudopotential read in
  partial core-charges read in
  partial kinetic energy density read in
  atomic valenz-charges read in
  non local Contribution for L=           2  read in
    real space projection operators read in
  non local Contribution for L=           2  read in
    real space projection operators read in
  non local Contribution for L=           0  read in
    real space projection operators read in
  non local Contribution for L=           0  read in
    real space projection operators read in
  non local Contribution for L=           1  read in
    real space projection operators read in
  non local Contribution for L=           1  read in
    real space projection operators read in
    PAW grid and wavefunctions read in
 
   number of l-projection  operators is LMAX  =           6
   number of lm-projection operators is LMMAX =          18
 

 ----------------------------------------------------------------------------- 
|                                                                             |
|  ADVICE TO THIS USER RUNNING 'VASP/VAMP'   (HEAR YOUR MASTER'S VOICE ...):  |
|                                                                             |
|      You have a (more or less) 'large supercell' and for larger cells       |
|      it might be more efficient to use real space projection opertators     |
|      So try LREAL= Auto  in the INCAR   file.                               |
|      Mind: At the moment your POTCAR file does not contain real space       |
|       projectors, and has to be modified,  BUT if you                       |
|      want to do an extremely  accurate calculation you might also keep the  |
|      reciprocal projection scheme          (i.e. LREAL=.FALSE.)             |
|                                                                             |
 ----------------------------------------------------------------------------- 

  PAW_PBE Cu 22Jun2005                  :
 energy of atom  1       EATOM=-1390.9808
 kinetic energy error for atom=    0.0452 (will be added to EATOM!!)
 
 
 POSCAR: Cu-35-9 <s> Cu </s>                     
  positions in direct lattice
  velocities in cartesian coordinates
 exchange correlation table for  LEXCH =        8
   RHO(1)=    0.500       N(1)  =     2000
   RHO(2)=  100.500       N(2)  =     4000
 


--------------------------------------------------------------------------------------------------------


 ion  position               nearest neighbor table
   1  0.516  0.494  0.546-   2 2.36   7 2.40   8 2.41   3 2.41  10 2.43   6 2.44  11 2.44  13 2.46
                             9 2.47   4 2.48   5 2.53  12 2.57
   2  0.514  0.494  0.629-   1 2.36   4 2.51   6 2.52   5 2.55   7 2.55   3 2.56
   3  0.538  0.420  0.583-   1 2.41  14 2.45  12 2.54   7 2.55   2 2.56   8 2.56   4 2.59
   4  0.452  0.449  0.585-  15 2.46   1 2.48  16 2.48   2 2.51   5 2.57   3 2.59   9 2.63   8 2.65

   5  0.451  0.540  0.586-  18 2.49  17 2.52   1 2.53   2 2.55   4 2.57   6 2.60  10 2.63   9 2.64

   6  0.538  0.567  0.585-   1 2.44  20 2.47  19 2.48   2 2.52   7 2.59   5 2.60  11 2.61  10 2.62

   7  0.591  0.493  0.584-   1 2.40  11 2.47  12 2.52   3 2.55   2 2.55   6 2.59
   8  0.492  0.423  0.506-  14 2.36  15 2.41   1 2.41  22 2.42  21 2.42  13 2.50   9 2.52  30 2.55
                             3 2.56  23 2.57  12 2.64   4 2.65
   9  0.439  0.494  0.506-  16 2.38  17 2.42  24 2.43   1 2.47  23 2.49  10 2.49  13 2.51   8 2.52
                            25 2.57  31 2.59   4 2.63   5 2.64
  10  0.491  0.565  0.506-  19 2.38  26 2.41  18 2.42   1 2.43  27 2.46  13 2.48   9 2.49  32 2.58
                            25 2.59   6 2.62   5 2.63  11 2.67
  11  0.580  0.536  0.509-  28 2.37  20 2.40  29 2.41   1 2.44   7 2.47  27 2.60  12 2.60   6 2.61
                            13 2.62  33 2.65  10 2.67
  12  0.582  0.445  0.509-  21 2.47  29 2.47   7 2.52   3 2.54  34 2.57   1 2.57  11 2.60   8 2.64
                            13 2.78
  13  0.515  0.495  0.460-  35 2.42  34 2.44   1 2.46  33 2.48  10 2.48   8 2.50   9 2.51  32 2.52
                            30 2.52  31 2.57  11 2.62  12 2.78
  14  0.512  0.350  0.540-   8 2.36   3 2.45  22 2.51  15 2.54  21 2.55
  15  0.428  0.380  0.540-   8 2.41   4 2.46  16 2.50  22 2.51  14 2.54  23 2.58
  16  0.377  0.451  0.541-   9 2.38   4 2.48  15 2.50  24 2.53  17 2.55  23 2.62
  17  0.376  0.541  0.538-   9 2.42  18 2.45  24 2.48   5 2.52  25 2.53  16 2.55
  18  0.427  0.610  0.539-  10 2.42  17 2.45  26 2.49   5 2.49  19 2.53  25 2.58
  19  0.511  0.638  0.542-  10 2.38  20 2.48   6 2.48  18 2.53  26 2.53  27 2.60
  20  0.595  0.614  0.539-  11 2.40   6 2.47  19 2.48  27 2.49  28 2.52
  21  0.551  0.378  0.464-   8 2.42  12 2.47  34 2.48  22 2.51  14 2.55  30 2.56
  22  0.467  0.353  0.465-   8 2.42  30 2.49  23 2.50  14 2.51  21 2.51  15 2.51
  23  0.414  0.423  0.461-  24 2.48   9 2.49  22 2.50  31 2.52  30 2.53   8 2.57  15 2.58  16 2.62

  24  0.364  0.495  0.465-   9 2.43  25 2.48  23 2.48  17 2.48  31 2.50  16 2.53
  25  0.412  0.568  0.461-  26 2.46  24 2.48  17 2.53  31 2.55  32 2.56   9 2.57  18 2.58  10 2.59

  26  0.466  0.635  0.465-  10 2.41  25 2.46  32 2.47  18 2.49  27 2.52  19 2.53
  27  0.551  0.610  0.464-  10 2.46  28 2.47  20 2.49  33 2.51  26 2.52  32 2.54  11 2.60  19 2.60

  28  0.634  0.583  0.465-  11 2.37  27 2.47  33 2.49  20 2.52  29 2.53
  29  0.635  0.494  0.460-  11 2.41  34 2.44  12 2.47  33 2.48  28 2.53
  30  0.490  0.422  0.416-  35 2.47  22 2.49  13 2.52  23 2.53  34 2.54   8 2.55  21 2.56  31 2.57

  31  0.436  0.495  0.415-  35 2.49  24 2.50  23 2.52  25 2.55  32 2.56  13 2.57  30 2.57   9 2.59

  32  0.489  0.567  0.415-  26 2.47  35 2.48  13 2.52  27 2.54  25 2.56  31 2.56  33 2.57  10 2.58

  33  0.575  0.540  0.416-  35 2.48  29 2.48  13 2.48  28 2.49  27 2.51  32 2.57  34 2.60  11 2.65

  34  0.575  0.449  0.419-  29 2.44  13 2.44  21 2.48  35 2.51  30 2.54  12 2.57  33 2.60
  35  0.514  0.494  0.375-  13 2.42  30 2.47  33 2.48  32 2.48  31 2.49  34 2.51
 
  LATTYP: Found a simple cubic cell.
 ALAT       =    28.4482630389
  
  Lattice vectors:
  
 A1 = (  28.4482630389,   0.0000000000,   0.0000000000)
 A2 = (   0.0000000000,  28.4482630389,   0.0000000000)
 A3 = (   0.0000000000,   0.0000000000,  28.4482630389)


Analysis of symmetry for initial positions (statically):
=====================================================================
 Subroutine PRICEL returns:
 Original cell was already a primitive cell.
 

 Routine SETGRP: Setting up the symmetry group for a 
 simple cubic supercell.


 Subroutine GETGRP returns: Found  1 space group operations
 (whereof  1 operations were pure point group operations)
 out of a pool of 48 trial point group operations.


The static configuration has the point symmetry C_1 .


Analysis of symmetry for dynamics (positions and initial velocities):
=====================================================================
 Subroutine PRICEL returns:
 Original cell was already a primitive cell.
 

 Routine SETGRP: Setting up the symmetry group for a 
 simple cubic supercell.


 Subroutine GETGRP returns: Found  1 space group operations
 (whereof  1 operations were pure point group operations)
 out of a pool of 48 trial point group operations.


The dynamic configuration has the point symmetry C_1 .


Analysis of structural, dynamic, and magnetic symmetry:
=====================================================================
 Subroutine PRICEL returns:
 Original cell was already a primitive cell.
 

 Routine SETGRP: Setting up the symmetry group for a 
 simple cubic supercell.


 Subroutine GETGRP returns: Found  1 space group operations
 (whereof  1 operations were pure point group operations)
 out of a pool of 48 trial point group operations.


The magnetic configuration has the point symmetry C_1 .


 Subroutine INISYM returns: Found  1 space group operations
 (whereof  1 operations are pure point group operations),
 and found     1 'primitive' translations

 
 
 KPOINTS: Gamma-point only                        
  k-points in reciprocal lattice
Space group operators:
 irot       det(A)        alpha          n_x          n_y          n_z        tau_x        tau_y        tau_z
    1     1.000000     0.000000     1.000000     0.000000     0.000000     0.000000     0.000000     0.000000


--------------------------------------------------------------------------------------------------------




 Dimension of arrays:
   k-points           NKPTS =      1   k-points in BZ     NKDIM =      1   number of bands    NBANDS=    284
   number of dos      NEDOS =    301   number of ions     NIONS =     35
   non local maximal  LDIM  =      6   non local SUM 2l+1 LMDIM =     18
   total plane-waves  NPLWV = ******
   max r-space proj   IRMAX =      1   max aug-charges    IRDMAX=   2373
   dimension x,y,z NGX =   120 NGY =  120 NGZ =  120
   dimension x,y,z NGXF=   240 NGYF=  240 NGZF=  240
   support grid    NGXF=   240 NGYF=  240 NGZF=  240
   ions per type =              35
 NGX,Y,Z   is equivalent  to a cutoff of   7.01,  7.01,  7.01 a.u.
 NGXF,Y,Z  is equivalent  to a cutoff of  14.03, 14.03, 14.03 a.u.


 I would recommend the setting:
   dimension x,y,z NGX =   120 NGY =  120 NGZ =  120
 SYSTEM =  unknown system                          
 POSCAR =  Cu-35-9 <s> Cu </s>                     

 Startparameter for this run:
   NWRITE =      2    write-flag & timer
   PREC   = normal    normal or accurate (medium, high low for compatibility)
   ISTART =      0    job   : 0-new  1-cont  2-samecut
   ICHARG =      2    charge: 1-file 2-atom 10-const
   ISPIN  =      2    spin polarized calculation?
   LNONCOLLINEAR =      F non collinear calculations
   LSORBIT =      F    spin-orbit coupling
   INIWAV =      1    electr: 0-lowe 1-rand  2-diag
   LASPH  =      F    aspherical Exc in radial PAW
   METAGGA=      F    non-selfconsistent MetaGGA calc.

 Electronic Relaxation 1
   ENCUT  =  295.4 eV  21.71 Ry    4.66 a.u.  39.87 39.87 39.87*2*pi/ulx,y,z
   ENINI  =  295.4     initial cutoff
   ENAUG  =  587.0 eV  augmentation charge cutoff
   NELM   =     60;   NELMIN=  2; NELMDL=-12     # of ELM steps 
   EDIFF  = 0.1E-05   stopping-criterion for ELM
   LREAL  =      F    real-space projection
   NLSPLINE    = F    spline interpolate recip. space projectors
   LCOMPAT=      F    compatible to vasp.4.4
   GGA_COMPAT  = T    GGA compatible to vasp.4.4-vasp.4.6
   LMAXPAW     = -100 max onsite density
   LMAXMIX     =    2 max onsite mixed and CHGCAR
   VOSKOWN=      0    Vosko Wilk Nusair interpolation
   ROPT   =    0.00000
 Ionic relaxation
   EDIFFG = -.3E-01   stopping-criterion for IOM
   NSW    =   1000    number of steps for IOM
   NBLOCK =      1;   KBLOCK =   1000    inner block; outer block 
   IBRION =      2    ionic relax: 0-MD 1-quasi-New 2-CG
   NFREE  =      1    steps in history (QN), initial steepest desc. (CG)
   ISIF   =      2    stress and relaxation
   IWAVPR =     11    prediction:  0-non 1-charg 2-wave 3-comb
   ISYM   =      2    0-nonsym 1-usesym 2-fastsym
   LCORR  =      T    Harris-Foulkes like correction to forces

   POTIM  = 0.5000    time-step for ionic-motion
   TEIN   =    0.0    initial temperature
   TEBEG  =    0.0;   TEEND  =   0.0 temperature during run
   SMASS  =  -3.00    Nose mass-parameter (am)
   estimated Nose-frequenzy (Omega)   =  0.10E-29 period in steps =****** mass=  -0.185E-25a.u.
   SCALEE = 1.0000    scale energy and forces
   NPACO  =    256;   APACO  = 16.0  distance and # of slots for P.C.
   PSTRESS=    0.0 pullay stress

  Mass of Ions in am
   POMASS =  63.55
  Ionic Valenz
   ZVAL   =  11.00
  Atomic Wigner-Seitz radii
   RWIGS  =  -1.00
  virtual crystal weights 
   VCA    =   1.00
   NELECT =     385.0000    total number of electrons
   NUPDOWN=      -1.0000    fix difference up-down

 DOS related values:
   EMIN   =  10.00;   EMAX   =-10.00  energy-range for DOS
   EFERMI =   0.00
   ISMEAR =     0;   SIGMA  =   0.00  broadening in eV -4-tet -1-fermi 0-gaus

 Electronic relaxation 2 (details)
   IALGO  =     48    algorithm
   LDIAG  =      T    sub-space diagonalisation (order eigenvalues)
   LSUBROT=      F    optimize rotation matrix (better conditioning)
   TURBO    =      0    0=normal 1=particle mesh
   IRESTART =      0    0=no restart 2=restart with 2 vectors
   NREBOOT  =      0    no. of reboots
   NMIN     =      0    reboot dimension
   EREF     =   0.00    reference energy to select bands
   IMIX   =      4    mixing-type and parameters
     AMIX     =   0.40;   BMIX     =  1.00
     AMIX_MAG =   1.60;   BMIX_MAG =  1.00
     AMIN     =   0.10
     WC   =   100.;   INIMIX=   1;  MIXPRE=   1;  MAXMIX= -45

 Intra band minimization:
   WEIMIN = 0.0010     energy-eigenvalue tresh-hold
   EBREAK =  0.88E-09  absolut break condition
   DEPER  =   0.30     relativ break condition  

   TIME   =   0.40     timestep for ELM

  volume/ion in A,a.u.               =     657.81      4439.11
  Fermi-wavevector in a.u.,A,eV,Ry     =   0.418639  0.791112  2.384534  0.175258
  Thomas-Fermi vector in A             =   1.379665
 
 Write flags
   LWAVE  =      F    write WAVECAR
   LCHARG =      F    write CHGCAR
   LVTOT  =      F    write LOCPOT, total local potential
   LVHAR  =      F    write LOCPOT, Hartree potential only
   LELF   =      F    write electronic localiz. function (ELF)
   LORBIT =     11    0 simple, 1 ext, 2 COOP (PROOUT)


 Dipole corrections
   LMONO  =      F    monopole corrections only (constant potential shift)
   LDIPOL =      F    correct potential (dipole corrections)
   IDIPOL =      0    1-x, 2-y, 3-z, 4-all directions 
   EPSILON=  1.0000000 bulk dielectric constant

 Exchange correlation treatment:
   GGA     =    PE    GGA type
   LEXCH   =     8    internal setting for exchange type
   VOSKOWN=      0    Vosko Wilk Nusair interpolation
   LHFCALC =     F    Hartree Fock is set to
   LHFONE  =     F    Hartree Fock one center treatment
   AEXX    =    0.0000 exact exchange contribution

 Linear response parameters
   LEPSILON=     F    determine dielectric tensor
   LRPA    =     F    only Hartree local field effects (RPA)
   LNABLA  =     F    use nabla operator in PAW spheres
   LVEL    =     F    velocity operator in full k-point grid
   LINTERFAST=   F  fast interpolation
   KINTER  =     0    interpolate to denser k-point grid
   CSHIFT  =0.1000    complex shift for real part using Kramers Kronig
   OMEGAMAX=  -1.0    maximum frequency
   DEG_THRESHOLD= 0.2000000E-02 threshold for treating states as degnerate
   RTIME   =    0.100 relaxation time in fs

 Orbital magnetization related:
   ORBITALMAG=     F  switch on orbital magnetization
   LCHIMAG   =     F  perturbation theory with respect to B field
   DQ        =  0.001000  dq finite difference perturbation B field



--------------------------------------------------------------------------------------------------------


 conjugate gradient relaxation of ions
 charge density and potential will be updated during run
 spin polarized calculation
 RMM-DIIS sequential band-by-band
 perform sub-space diagonalisation
    before iterative eigenvector-optimisation
 modified Broyden-mixing scheme, WC =      100.0
 initial mixing is a Kerker type mixing with AMIX =  0.4000 and BMIX =      1.0000
 Hartree-type preconditioning will be used
 using additional bands           91
 reciprocal scheme for non local part
 use partial core corrections
 calculate Harris-corrections to forces 
   (improved forces if not selfconsistent)
 use gradient corrections 
 use of overlap-Matrix (Vanderbilt PP)
 Gauss-broadening in eV      SIGMA  =   0.00


--------------------------------------------------------------------------------------------------------


  energy-cutoff  :      295.45
  volume of cell :    23023.28
      direct lattice vectors                 reciprocal lattice vectors
    28.448263039  0.000000000  0.000000000     0.035151531  0.000000000  0.000000000
     0.000000000 28.448263039  0.000000000     0.000000000  0.035151531  0.000000000
     0.000000000  0.000000000 28.448263039     0.000000000  0.000000000  0.035151531

  length of vectors
    28.448263039 28.448263039 28.448263039     0.035151531  0.035151531  0.035151531


 
 k-points in units of 2pi/SCALE and weight: Gamma-point only                        
   0.00000000  0.00000000  0.00000000       1.000
 
 k-points in reciprocal lattice and weights: Gamma-point only                        
   0.00000000  0.00000000  0.00000000       1.000
 
 position of ions in fractional coordinates (direct lattice) 
   0.51585722  0.49358562  0.54625244
   0.51427114  0.49380849  0.62930664
   0.53829959  0.42040962  0.58295463
   0.45211892  0.44911384  0.58545750
   0.45086221  0.53958310  0.58554372
   0.53824813  0.56665867  0.58488085
   0.59142584  0.49268811  0.58350025
   0.49224834  0.42298053  0.50550898
   0.43924983  0.49391158  0.50561407
   0.49064764  0.56476365  0.50601457
   0.58021275  0.53638171  0.50925075
   0.58242108  0.44493239  0.50935284
   0.51463450  0.49466761  0.45978106
   0.51242893  0.35025300  0.54006505
   0.42812317  0.37971362  0.53993196
   0.37694277  0.45094074  0.54101718
   0.37610100  0.54059872  0.53784866
   0.42689823  0.61010021  0.53934521
   0.51140749  0.63755405  0.54156783
   0.59523788  0.61362162  0.53924336
   0.55126795  0.37753973  0.46422906
   0.46651004  0.35295881  0.46495331
   0.41354612  0.42294147  0.46147821
   0.36410845  0.49463000  0.46473295
   0.41168116  0.56752806  0.46091914
   0.46602463  0.63481420  0.46499302
   0.55102988  0.60999774  0.46384918
   0.63367073  0.58291209  0.46538434
   0.63497849  0.49405220  0.46046985
   0.48980741  0.42170924  0.41577026
   0.43625210  0.49458026  0.41471946
   0.48936493  0.56724717  0.41545597
   0.57534764  0.53988859  0.41642126
   0.57481617  0.44864463  0.41942654
   0.51395764  0.49428891  0.37475988
 
 position of ions in cartesian coordinates  (Angst):
  14.67524201 14.04165362 15.53993300
  14.63012062 14.04799380 17.90268088
  15.31368846 11.95992332 16.58404679
  12.86199804 12.77650872 16.65524907
  12.82624673 15.35020192 16.65770171
  15.31222433 16.12045502 16.63884430
  16.82503775 14.01612090 16.59956864
  14.00361028 12.03306125 14.38085236
  12.49589468 14.05092658 14.38384200
  13.95807314 16.06654480 14.39523571
  16.50604495 15.25912807 14.48729937
  16.56886820 12.65755362 14.49020352
  14.64045758 14.07243419 13.07997258
  14.57771308  9.96408934 15.36391253
  12.17936058 10.80219303 15.36012656
  10.72336714 12.82848078 15.39099914
  10.69942016 15.37909469 15.30086001
  12.14451319 17.35629135 15.34343450
  14.54865468 18.13730540 15.40666405
  16.93348388 17.45646928 15.34053705
  15.68261560 10.74034949 13.20651044
  13.27140026 10.04106509 13.22711406
  11.76466893 12.03195027 13.12825358
  10.35825285 14.07136437 13.22084528
  11.71161382 16.14518766 13.11234899
  13.25759123 18.05936123 13.22824361
  15.67584284 17.35337624 13.19570335
  18.02683168 16.58283639 13.23937617
  18.06403514 14.05492707 13.09956748
  13.93416995 11.99689551 11.82794158
  12.41061441 14.06994932 11.79804816
  13.92158216 16.13719667 11.81900076
  16.36764106 15.35889266 11.84646158
  16.35252159 12.76316047 11.93195664
  14.62120219 14.06166106 10.66126770
 


--------------------------------------------------------------------------------------------------------


 use parallel FFT for wavefunctions z direction half grid
 k-point  1 :   0.0000 0.0000 0.0000  plane waves:  132786

 maximum and minimum number of plane-waves per node :     22139    22124

 maximum number of plane-waves:    132786
 maximum index in each direction: 
   IXMAX=   39   IYMAX=   39   IZMAX=   39
   IXMIN=  -39   IYMIN=  -39   IZMIN=    0

 WARNING: aliasing errors must be expected set NGX to 158 to avoid them
 WARNING: aliasing errors must be expected set NGY to 158 to avoid them
 WARNING: aliasing errors must be expected set NGZ to 158 to avoid them
 aliasing errors are usually negligible using standard VASP settings
 and one can safely disregard these warnings

 parallel 3D FFT for wavefunctions:
    minimum data exchange during FFTs selected (reduces bandwidth)
 parallel 3D FFT for charge:
    minimum data exchange during FFTs selected (reduces bandwidth)


 total amount of memory used by VASP on root node   186628. kBytes
========================================================================

   base      :      30000. kBytes
   nonl-proj :      15583. kBytes
   fftplans  :      25680. kBytes
   grid      :      64857. kBytes
   one-center:         93. kBytes
   wavefun   :      50415. kBytes
 
     INWAV:  cpu time    0.0000: real time    0.0003
 Broyden mixing: mesh for mixing (old mesh)
   NGX = 79   NGY = 79   NGZ = 79
  (NGX  =240   NGY  =240   NGZ  =240)
  gives a total of 493039 points

 initial charge density was supplied:
 charge density of overlapping atoms calculated
 number of electron     385.0000000 magnetization     105.0000000
 keeping initial charge density in first step


--------------------------------------------------------------------------------------------------------


 Maximum index for augmentation-charges          196 (set IRDMAX)


--------------------------------------------------------------------------------------------------------


 First call to EWALD:  gamma=   0.062
 Maximum number of real-space cells 3x 3x 3
 Maximum number of reciprocal cells 3x 3x 3

 FEWALD executed in parallel
    FEWALD:  cpu time    0.0025: real time    0.0026


----------------------------------------- Iteration    1(   1)  ---------------------------------------


    POTLOK:  cpu time    1.1193: real time    1.1209
    SETDIJ:  cpu time    0.0197: real time    0.0202
    EDDIAG:  cpu time    2.8281: real time    2.8386
  RMM-DIIS:  cpu time   19.1506: real time   19.1642
    ORTHCH:  cpu time    0.2448: real time    0.2449
       DOS:  cpu time    0.0002: real time    0.0002
    --------------------------------------------
      LOOP:  cpu time   23.3665: real time   23.3950

 eigenvalue-minimisations  :   568
 total energy-change (2. order) : 0.3535458E+04  (-0.4716807E+04)
 number of electron     385.0000000 magnetization     105.0000000
 augmentation part      385.0000000 magnetization     105.0000000

 Free energy of the ion-electron system (eV)
  ---------------------------------------------------
  alpha Z        PSCENC =        38.91177548
  Ewald energy   TEWEN  =    145999.83118023
  -Hartree energ DENC   =   -190271.98933977
  -exchange      EXHF   =         0.00000000
  -V(xc)+E(xc)   XCENC  =      1615.88493395
  PAW double counting   =     42952.60129310   -46651.35568999
  entropy T*S    EENTRO =         0.00000000
  eigenvalues    EBANDS =      1168.82866878
  atomic energy  EATOM  =     48682.74546302
  Solvation  Ediel_sol  =         0.00000000
  ---------------------------------------------------
  free energy    TOTEN  =      3535.45828479 eV

  energy without entropy =     3535.45828479  energy(sigma->0) =     3535.45828479


--------------------------------------------------------------------------------------------------------




----------------------------------------- Iteration    1(   2)  ---------------------------------------


    EDDIAG:  cpu time    2.8665: real time    2.8682
  RMM-DIIS:  cpu time   19.9074: real time   19.9215
    ORTHCH:  cpu time    0.2332: real time    0.2336
       DOS:  cpu time    0.0002: real time    0.0002
    --------------------------------------------
      LOOP:  cpu time   23.0109: real time   23.0302

 eigenvalue-minimisations  :   568
 total energy-change (2. order) :-0.1144011E+04  (-0.1204986E+04)
 number of electron     385.0000000 magnetization     105.0000000
 augmentation part      385.0000000 magnetization     105.0000000

 Free energy of the ion-electron system (eV)
  ---------------------------------------------------
  alpha Z        PSCENC =        38.91177548
  Ewald energy   TEWEN  =    145999.83118023
  -Hartree energ DENC   =   -190271.98933977
  -exchange      EXHF   =         0.00000000
  -V(xc)+E(xc)   XCENC  =      1615.88493395
  PAW double counting   =     42952.60129310   -46651.35568999
  entropy T*S    EENTRO =        -0.00000000
  eigenvalues    EBANDS =        24.81788167
  atomic energy  EATOM  =     48682.74546302
  Solvation  Ediel_sol  =         0.00000000
  ---------------------------------------------------
  free energy    TOTEN  =      2391.44749769 eV

  energy without entropy =     2391.44749769  energy(sigma->0) =     2391.44749769


--------------------------------------------------------------------------------------------------------




----------------------------------------- Iteration    1(   3)  ---------------------------------------


    EDDIAG:  cpu time    2.8458: real time    2.8584
  RMM-DIIS:  cpu time   19.8245: real time   19.8477
    ORTHCH:  cpu time    0.2339: real time    0.2343
       DOS:  cpu time    0.0002: real time    0.0002
    --------------------------------------------
      LOOP:  cpu time   22.9084: real time   22.9474

 eigenvalue-minimisations  :   568
 total energy-change (2. order) :-0.8327290E+03  (-0.1093469E+04)
 number of electron     385.0000000 magnetization     105.0000000
 augmentation part      385.0000000 magnetization     105.0000000

 Free energy of the ion-electron system (eV)
  ---------------------------------------------------
  alpha Z        PSCENC =        38.91177548
  Ewald energy   TEWEN  =    145999.83118023
  -Hartree energ DENC   =   -190271.98933977
  -exchange      EXHF   =         0.00000000
  -V(xc)+E(xc)   XCENC  =      1615.88493395
  PAW double counting   =     42952.60129310   -46651.35568999
  entropy T*S    EENTRO =         0.00000000
  eigenvalues    EBANDS =      -807.91110944
  atomic energy  EATOM  =     48682.74546302
  Solvation  Ediel_sol  =         0.00000000
  ---------------------------------------------------
  free energy    TOTEN  =      1558.71850657 eV

  energy without entropy =     1558.71850657  energy(sigma->0) =     1558.71850657


--------------------------------------------------------------------------------------------------------




----------------------------------------- Iteration    1(   4)  ---------------------------------------


    EDDIAG:  cpu time    2.8555: real time    2.8575
  RMM-DIIS:  cpu time   19.7577: real time   19.7715
    ORTHCH:  cpu time    0.2548: real time    0.2552
       DOS:  cpu time    0.0001: real time    0.0001
    --------------------------------------------
      LOOP:  cpu time   22.8720: real time   22.8910

 eigenvalue-minimisations  :   568
 total energy-change (2. order) :-0.8258426E+03  (-0.7828105E+03)
 number of electron     385.0000000 magnetization     105.0000000
 augmentation part      385.0000000 magnetization     105.0000000

 Free energy of the ion-electron system (eV)
  ---------------------------------------------------
  alpha Z        PSCENC =        38.91177548
  Ewald energy   TEWEN  =    145999.83118023
  -Hartree energ DENC   =   -190271.98933977
  -exchange      EXHF   =         0.00000000
  -V(xc)+E(xc)   XCENC  =      1615.88493395
  PAW double counting   =     42952.60129310   -46651.35568999
  entropy T*S    EENTRO =         0.00000000
  eigenvalues    EBANDS =     -1633.75369805
  atomic energy  EATOM  =     48682.74546302
  Solvation  Ediel_sol  =         0.00000000
  ---------------------------------------------------
  free energy    TOTEN  =       732.87591796 eV

  energy without entropy =      732.87591796  energy(sigma->0) =      732.87591796


--------------------------------------------------------------------------------------------------------




----------------------------------------- Iteration    1(   5)  ---------------------------------------


    EDDIAG:  cpu time    2.8710: real time    2.8726
  RMM-DIIS:  cpu time   19.6517: real time   19.6656
    ORTHCH:  cpu time    0.2494: real time    0.2494
       DOS:  cpu time    0.0002: real time    0.0002
    --------------------------------------------
      LOOP:  cpu time   22.7752: real time   22.7932

 eigenvalue-minimisations  :   568
 total energy-change (2. order) :-0.4244114E+03  (-0.3308269E+03)
 number of electron     385.0000000 magnetization     105.0000000
 augmentation part      385.0000000 magnetization     105.0000000

 Free energy of the ion-electron system (eV)
  ---------------------------------------------------
  alpha Z        PSCENC =        38.91177548
  Ewald energy   TEWEN  =    145999.83118023
  -Hartree energ DENC   =   -190271.98933977
  -exchange      EXHF   =         0.00000000
  -V(xc)+E(xc)   XCENC  =      1615.88493395
  PAW double counting   =     42952.60129310   -46651.35568999
  entropy T*S    EENTRO =        -0.00000000
  eigenvalues    EBANDS =     -2058.16514268
  atomic energy  EATOM  =     48682.74546302
  Solvation  Ediel_sol  =         0.00000000
  ---------------------------------------------------
  free energy    TOTEN  =       308.46447333 eV

  energy without entropy =      308.46447333  energy(sigma->0) =      308.46447333


--------------------------------------------------------------------------------------------------------




----------------------------------------- Iteration    1(   6)  ---------------------------------------


    EDDIAG:  cpu time    2.8685: real time    2.8722
  RMM-DIIS:  cpu time   19.9066: real time   19.9254
    ORTHCH:  cpu time    0.2520: real time    0.2526
       DOS:  cpu time    0.0001: real time    0.0001
    --------------------------------------------
      LOOP:  cpu time   23.0306: real time   23.0566

 eigenvalue-minimisations  :   568
 total energy-change (2. order) :-0.2297876E+03  (-0.1569580E+03)
 number of electron     385.0000000 magnetization     105.0000000
 augmentation part      385.0000000 magnetization     105.0000000

 Free energy of the ion-electron system (eV)
  ---------------------------------------------------
  alpha Z        PSCENC =        38.91177548
  Ewald energy   TEWEN  =    145999.83118023
  -Hartree energ DENC   =   -190271.98933977
  -exchange      EXHF   =         0.00000000
  -V(xc)+E(xc)   XCENC  =      1615.88493395
  PAW double counting   =     42952.60129310   -46651.35568999
  entropy T*S    EENTRO =         0.00000000
  eigenvalues    EBANDS =     -2287.95274358
  atomic energy  EATOM  =     48682.74546302
  Solvation  Ediel_sol  =         0.00000000
  ---------------------------------------------------
  free energy    TOTEN  =        78.67687244 eV

  energy without entropy =       78.67687244  energy(sigma->0) =       78.67687244


--------------------------------------------------------------------------------------------------------




----------------------------------------- Iteration    1(   7)  ---------------------------------------


    EDDIAG:  cpu time    2.8724: real time    2.8745
  RMM-DIIS:  cpu time   19.7304: real time   19.7410
    ORTHCH:  cpu time    0.2473: real time    0.2473
       DOS:  cpu time    0.0001: real time    0.0001
    --------------------------------------------
      LOOP:  cpu time   22.8540: real time   22.8695

 eigenvalue-minimisations  :   568
 total energy-change (2. order) :-0.7984873E+02  (-0.7586325E+02)
 number of electron     385.0000000 magnetization     105.0000000
 augmentation part      385.0000000 magnetization     105.0000000

 Free energy of the ion-electron system (eV)
  ---------------------------------------------------
  alpha Z        PSCENC =        38.91177548
  Ewald energy   TEWEN  =    145999.83118023
  -Hartree energ DENC   =   -190271.98933977
  -exchange      EXHF   =         0.00000000
  -V(xc)+E(xc)   XCENC  =      1615.88493395
  PAW double counting   =     42952.60129310   -46651.35568999
  entropy T*S    EENTRO =         0.00000000
  eigenvalues    EBANDS =     -2367.80147505
  atomic energy  EATOM  =     48682.74546302
  Solvation  Ediel_sol  =         0.00000000
  ---------------------------------------------------
  free energy    TOTEN  =        -1.17185903 eV

  energy without entropy =       -1.17185903  energy(sigma->0) =       -1.17185903


--------------------------------------------------------------------------------------------------------




----------------------------------------- Iteration    1(   8)  ---------------------------------------


    EDDIAG:  cpu time    2.8845: real time    2.8862
  RMM-DIIS:  cpu time   20.0340: real time   20.0709
    ORTHCH:  cpu time    0.2479: real time    0.2483
       DOS:  cpu time    0.0002: real time    0.0002
    --------------------------------------------
      LOOP:  cpu time   23.1701: real time   23.2119

 eigenvalue-minimisations  :   568
 total energy-change (2. order) :-0.3252374E+02  (-0.2701811E+02)
 number of electron     385.0000000 magnetization     105.0000000
 augmentation part      385.0000000 magnetization     105.0000000

 Free energy of the ion-electron system (eV)
  ---------------------------------------------------
  alpha Z        PSCENC =        38.91177548
  Ewald energy   TEWEN  =    145999.83118023
  -Hartree energ DENC   =   -190271.98933977
  -exchange      EXHF   =         0.00000000
  -V(xc)+E(xc)   XCENC  =      1615.88493395
  PAW double counting   =     42952.60129310   -46651.35568999
  entropy T*S    EENTRO =        -0.00000000
  eigenvalues    EBANDS =     -2400.32521288
  atomic energy  EATOM  =     48682.74546302
  Solvation  Ediel_sol  =         0.00000000
  ---------------------------------------------------
  free energy    TOTEN  =       -33.69559687 eV

  energy without entropy =      -33.69559687  energy(sigma->0) =      -33.69559687


--------------------------------------------------------------------------------------------------------




----------------------------------------- Iteration    1(   9)  ---------------------------------------


    EDDIAG:  cpu time    2.8684: real time    2.8697
  RMM-DIIS:  cpu time   41.5535: real time   42.0726
    ORTHCH:  cpu time    0.2440: real time    0.2444
       DOS:  cpu time    0.0002: real time    0.0002
    --------------------------------------------
      LOOP:  cpu time   44.6698: real time   45.1934

 eigenvalue-minimisations  :  1324
 total energy-change (2. order) :-0.2957716E+02  (-0.2682376E+02)
 number of electron     385.0000000 magnetization     105.0000000
 augmentation part      385.0000000 magnetization     105.0000000

 Free energy of the ion-electron system (eV)
  ---------------------------------------------------
  alpha Z        PSCENC =        38.91177548
  Ewald energy   TEWEN  =    145999.83118023
  -Hartree energ DENC   =   -190271.98933977
  -exchange      EXHF   =         0.00000000
  -V(xc)+E(xc)   XCENC  =      1615.88493395
  PAW double counting   =     42952.60129310   -46651.35568999
  entropy T*S    EENTRO =         0.00000000
  eigenvalues    EBANDS =     -2429.90237658
  atomic energy  EATOM  =     48682.74546302
  Solvation  Ediel_sol  =         0.00000000
  ---------------------------------------------------
  free energy    TOTEN  =       -63.27276056 eV

  energy without entropy =      -63.27276056  energy(sigma->0) =      -63.27276056


--------------------------------------------------------------------------------------------------------




----------------------------------------- Iteration    1(  10)  ---------------------------------------


    EDDIAG:  cpu time    2.8704: real time    2.8722
  RMM-DIIS:  cpu time   42.2457: real time   42.3010
    ORTHCH:  cpu time    0.2604: real time    0.2604
       DOS:  cpu time    0.0001: real time    0.0001
    --------------------------------------------
      LOOP:  cpu time   45.3804: real time   45.4402

 eigenvalue-minimisations  :  1322
 total energy-change (2. order) :-0.5612616E+01  (-0.4200534E+01)
 number of electron     385.0000000 magnetization     105.0000000
 augmentation part      385.0000000 magnetization     105.0000000

 Free energy of the ion-electron system (eV)
  ---------------------------------------------------
  alpha Z        PSCENC =        38.91177548
  Ewald energy   TEWEN  =    145999.83118023
  -Hartree energ DENC   =   -190271.98933977
  -exchange      EXHF   =         0.00000000
  -V(xc)+E(xc)   XCENC  =      1615.88493395
  PAW double counting   =     42952.60129310   -46651.35568999
  entropy T*S    EENTRO =        -0.00000000
  eigenvalues    EBANDS =     -2435.51499217
  atomic energy  EATOM  =     48682.74546302
  Solvation  Ediel_sol  =         0.00000000
  ---------------------------------------------------
  free energy    TOTEN  =       -68.88537616 eV

  energy without entropy =      -68.88537616  energy(sigma->0) =      -68.88537616


--------------------------------------------------------------------------------------------------------




----------------------------------------- Iteration    1(  11)  ---------------------------------------


    EDDIAG:  cpu time    2.8784: real time    2.8820
  RMM-DIIS:  cpu time   41.9097: real time   41.9677
    ORTHCH:  cpu time    0.2574: real time    0.2577
       DOS:  cpu time    0.0002: real time    0.0001
    --------------------------------------------
      LOOP:  cpu time   45.0492: real time   45.1140

 eigenvalue-minimisations  :  1310
 total energy-change (2. order) :-0.3155919E+01  (-0.1806716E+01)
 number of electron     385.0000000 magnetization     105.0000000
 augmentation part      385.0000000 magnetization     105.0000000

 Free energy of the ion-electron system (eV)
  ---------------------------------------------------
  alpha Z        PSCENC =        38.91177548
  Ewald energy   TEWEN  =    145999.83118023
  -Hartree energ DENC   =   -190271.98933977
  -exchange      EXHF   =         0.00000000
  -V(xc)+E(xc)   XCENC  =      1615.88493395
  PAW double counting   =     42952.60129310   -46651.35568999
  entropy T*S    EENTRO =         0.00000000
  eigenvalues    EBANDS =     -2438.67091160
  atomic energy  EATOM  =     48682.74546302
  Solvation  Ediel_sol  =         0.00000000
  ---------------------------------------------------
  free energy    TOTEN  =       -72.04129559 eV

  energy without entropy =      -72.04129559  energy(sigma->0) =      -72.04129559


--------------------------------------------------------------------------------------------------------




----------------------------------------- Iteration    1(  12)  ---------------------------------------


    EDDIAG:  cpu time    2.8793: real time    2.8816
  RMM-DIIS:  cpu time   40.3198: real time   40.3479
    ORTHCH:  cpu time    0.2621: real time    0.2692
       DOS:  cpu time    0.0001: real time    0.0001
    CHARGE:  cpu time    1.1240: real time    1.1246
    MIXING:  cpu time    0.0239: real time    0.0240
    --------------------------------------------
      LOOP:  cpu time   44.6130: real time   44.6542

 eigenvalue-minimisations  :  1254
 total energy-change (2. order) :-0.8474751E+00  (-0.4209214E+00)
 number of electron     385.0001232 magnetization      98.7488092
 augmentation part      226.8765417 magnetization      94.8530773

 Broyden mixing:
  rms(total) = 0.10590E+02    rms(broyden)= 0.10588E+02
  rms(prec ) = 0.10663E+02
  weight for this iteration     100.00

 Free energy of the ion-electron system (eV)
  ---------------------------------------------------
  alpha Z        PSCENC =        38.91177548
  Ewald energy   TEWEN  =    145999.83118023
  -Hartree energ DENC   =   -190271.98933977
  -exchange      EXHF   =         0.00000000
  -V(xc)+E(xc)   XCENC  =      1615.88493395
  PAW double counting   =     42952.60129310   -46651.35568999
  entropy T*S    EENTRO =         0.00000000
  eigenvalues    EBANDS =     -2439.51838671
  atomic energy  EATOM  =     48682.74546302
  Solvation  Ediel_sol  =         0.00000000
  ---------------------------------------------------
  free energy    TOTEN  =       -72.88877070 eV

  energy without entropy =      -72.88877070  energy(sigma->0) =      -72.88877070


--------------------------------------------------------------------------------------------------------




----------------------------------------- Iteration    1(  13)  ---------------------------------------


    POTLOK:  cpu time    1.1096: real time    1.1104
    SETDIJ:  cpu time    0.0202: real time    0.0202
    EDDIAG:  cpu time    2.8822: real time    2.8849
  RMM-DIIS:  cpu time   38.6662: real time   38.6923
    ORTHCH:  cpu time    0.2551: real time    0.2551
       DOS:  cpu time    0.0002: real time    0.0002
    CHARGE:  cpu time    1.0953: real time    1.0958
    MIXING:  cpu time    0.0254: real time    0.0255
    --------------------------------------------
      LOOP:  cpu time   44.0577: real time   44.0905

 eigenvalue-minimisations  :  1137
 total energy-change (2. order) : 0.2002427E+03  (-0.1243469E+03)
 number of electron     385.0001437 magnetization      94.0063511
 augmentation part      265.7849700 magnetization      68.3500592

 Broyden mixing:
  rms(total) = 0.52171E+01    rms(broyden)= 0.52144E+01
  rms(prec ) = 0.53495E+01
  weight for this iteration     100.00

 eigenvalues of (default mixing * dielectric matrix)
  average eigenvalue GAMMA=   0.9232
  0.9232

 Free energy of the ion-electron system (eV)
  ---------------------------------------------------
  alpha Z        PSCENC =        38.91177548
  Ewald energy   TEWEN  =    145999.83118023
  -Hartree energ DENC   =   -189243.05180807
  -exchange      EXHF   =         0.00000000
  -V(xc)+E(xc)   XCENC  =      1734.99742150
  PAW double counting   =     43090.57208743   -46600.97241751
  entropy T*S    EENTRO =         0.00000000
  eigenvalues    EBANDS =     -3575.67981755
  atomic energy  EATOM  =     48682.74546302
  Solvation  Ediel_sol  =         0.00000000
  ---------------------------------------------------
  free energy    TOTEN  =       127.35388454 eV

  energy without entropy =      127.35388454  energy(sigma->0) =      127.35388454


--------------------------------------------------------------------------------------------------------




----------------------------------------- Iteration    1(  14)  ---------------------------------------


    POTLOK:  cpu time    1.1067: real time    1.1074
    SETDIJ:  cpu time    0.0204: real time    0.0204
    EDDIAG:  cpu time    2.8802: real time    2.8829
  RMM-DIIS:  cpu time   36.3103: real time   36.3439
    ORTHCH:  cpu time    0.2563: real time    0.2563
       DOS:  cpu time    0.0002: real time    0.0002
    CHARGE:  cpu time    1.1244: real time    1.1254
    MIXING:  cpu time    0.0272: real time    0.0272
    --------------------------------------------
      LOOP:  cpu time   41.7295: real time   41.7700

 eigenvalue-minimisations  :  1140
 total energy-change (2. order) : 0.3944771E+02  (-0.3216050E+02)
 number of electron     385.0001352 magnetization      87.9495817
 augmentation part      246.0391397 magnetization      55.2563144

 Broyden mixing:
  rms(total) = 0.24757E+01    rms(broyden)= 0.24744E+01
  rms(prec ) = 0.24928E+01
  weight for this iteration     100.00

 eigenvalues of (default mixing * dielectric matrix)
  average eigenvalue GAMMA=   0.9039
  1.1117  0.6961

 Free energy of the ion-electron system (eV)
  ---------------------------------------------------
  alpha Z        PSCENC =        38.91177548
  Ewald energy   TEWEN  =    145999.83118023
  -Hartree energ DENC   =   -190169.37571784
  -exchange      EXHF   =         0.00000000
  -V(xc)+E(xc)   XCENC  =      1762.91237386
  PAW double counting   =     44497.65358277   -48305.79062967
  entropy T*S    EENTRO =         0.00000000
  eigenvalues    EBANDS =     -2340.08642856
  atomic energy  EATOM  =     48682.74546302
  Solvation  Ediel_sol  =         0.00000000
  ---------------------------------------------------
  free energy    TOTEN  =       166.80159928 eV

  energy without entropy =      166.80159928  energy(sigma->0) =      166.80159928


--------------------------------------------------------------------------------------------------------




----------------------------------------- Iteration    1(  15)  ---------------------------------------


    POTLOK:  cpu time    1.1128: real time    1.1140
    SETDIJ:  cpu time    0.0201: real time    0.0206
    EDDIAG:  cpu time    2.8809: real time    2.8826
  RMM-DIIS:  cpu time   37.3488: real time   37.3975
    ORTHCH:  cpu time    0.2504: real time    0.2507
       DOS:  cpu time    0.0002: real time    0.0002
    CHARGE:  cpu time    1.1097: real time    1.1114
    MIXING:  cpu time    0.0295: real time    0.0295
    --------------------------------------------
      LOOP:  cpu time   42.7559: real time   44.1318

 eigenvalue-minimisations  :  1195
 total energy-change (2. order) : 0.8711371E+01  (-0.3218105E+01)
 number of electron     385.0001350 magnetization      80.3698355
 augmentation part      247.1942044 magnetization      47.2993239

 Broyden mixing:
  rms(total) = 0.18569E+01    rms(broyden)= 0.18566E+01
  rms(prec ) = 0.18643E+01
  weight for this iteration     100.00

 eigenvalues of (default mixing * dielectric matrix)
  average eigenvalue GAMMA=   1.0380
  0.6903  1.0532  1.3705

 Free energy of the ion-electron system (eV)
  ---------------------------------------------------
  alpha Z        PSCENC =        38.91177548
  Ewald energy   TEWEN  =    145999.83118023
  -Hartree energ DENC   =   -190227.76938534
  -exchange      EXHF   =         0.00000000
  -V(xc)+E(xc)   XCENC  =      1765.44003032
  PAW double counting   =     45029.19235528   -48833.14442433
  entropy T*S    EENTRO =         0.00000000
  eigenvalues    EBANDS =     -2279.69402471
  atomic energy  EATOM  =     48682.74546302
  Solvation  Ediel_sol  =         0.00000000
  ---------------------------------------------------
  free energy    TOTEN  =       175.51296994 eV

  energy without entropy =      175.51296994  energy(sigma->0) =      175.51296994


--------------------------------------------------------------------------------------------------------




----------------------------------------- Iteration    1(  16)  ---------------------------------------


    POTLOK:  cpu time    1.4526: real time    1.4740
    SETDIJ:  cpu time    0.0205: real time    0.0205
    EDDIAG:  cpu time    2.8720: real time    2.8756
  RMM-DIIS:  cpu time   38.6641: real time   38.6925
    ORTHCH:  cpu time    0.2467: real time    0.2468
       DOS:  cpu time    0.0002: real time    0.0002
    CHARGE:  cpu time    1.1018: real time    1.1027
    MIXING:  cpu time    0.0317: real time    0.0317
    --------------------------------------------
      LOOP:  cpu time   44.3934: real time   44.4505

 eigenvalue-minimisations  :  1141
 total energy-change (2. order) :-0.4266181E+02  (-0.1990873E+01)
 number of electron     385.0001355 magnetization      71.5576588
 augmentation part      247.8609738 magnetization      42.7448051

 Broyden mixing:
  rms(total) = 0.17227E+01    rms(broyden)= 0.17220E+01
  rms(prec ) = 0.17491E+01
  weight for this iteration     100.00

 eigenvalues of (default mixing * dielectric matrix)
  average eigenvalue GAMMA=   1.1097
  2.1952  1.0779  0.6923  0.4736

 Free energy of the ion-electron system (eV)
  ---------------------------------------------------
  alpha Z        PSCENC =        38.91177548
  Ewald energy   TEWEN  =    145999.83118023
  -Hartree energ DENC   =   -190228.23074841
  -exchange      EXHF   =         0.00000000
  -V(xc)+E(xc)   XCENC  =      1732.46747074
  PAW double counting   =     45385.77084021   -49174.67044663
  entropy T*S    EENTRO =         0.00000000
  eigenvalues    EBANDS =     -2303.97436982
  atomic energy  EATOM  =     48682.74546302
  Solvation  Ediel_sol  =         0.00000000
  ---------------------------------------------------
  free energy    TOTEN  =       132.85116482 eV

  energy without entropy =      132.85116482  energy(sigma->0) =      132.85116482


--------------------------------------------------------------------------------------------------------




----------------------------------------- Iteration    1(  17)  ---------------------------------------


    POTLOK:  cpu time    1.1063: real time    1.1078
    SETDIJ:  cpu time    0.0196: real time    0.0202
    EDDIAG:  cpu time    2.8704: real time    2.8741
  RMM-DIIS:  cpu time   35.8316: real time   35.8666
    ORTHCH:  cpu time    0.2478: real time    0.2481
       DOS:  cpu time    0.0002: real time    0.0002
    CHARGE:  cpu time    1.1217: real time    1.1225
    MIXING:  cpu time    0.0366: real time    0.0366
    --------------------------------------------
      LOOP:  cpu time   41.2380: real time   41.2826

 eigenvalue-minimisations  :  1142
 total energy-change (2. order) :-0.3286520E+02  (-0.1874594E+01)
 number of electron     385.0001345 magnetization      62.8402947
 augmentation part      248.4614254 magnetization      38.8051435

 Broyden mixing:
  rms(total) = 0.11794E+01    rms(broyden)= 0.11788E+01
  rms(prec ) = 0.11856E+01
  weight for this iteration     100.00

 eigenvalues of (default mixing * dielectric matrix)
  average eigenvalue GAMMA=   1.1893
  2.9347  1.1237  0.7189  0.7189  0.4501

 Free energy of the ion-electron system (eV)
  ---------------------------------------------------
  alpha Z        PSCENC =        38.91177548
  Ewald energy   TEWEN  =    145999.83118023
  -Hartree energ DENC   =   -190254.26711766
  -exchange      EXHF   =         0.00000000
  -V(xc)+E(xc)   XCENC  =      1707.98271985
  PAW double counting   =     45713.89443063   -49496.19458118
  entropy T*S    EENTRO =        -0.00000000
  eigenvalues    EBANDS =     -2292.91790489
  atomic energy  EATOM  =     48682.74546302
  Solvation  Ediel_sol  =         0.00000000
  ---------------------------------------------------
  free energy    TOTEN  =        99.98596549 eV

  energy without entropy =       99.98596549  energy(sigma->0) =       99.98596549


--------------------------------------------------------------------------------------------------------




----------------------------------------- Iteration    1(  18)  ---------------------------------------


    POTLOK:  cpu time    1.1087: real time    1.1102
    SETDIJ:  cpu time    0.0204: real time    0.0212
    EDDIAG:  cpu time    2.8822: real time    2.8845
  RMM-DIIS:  cpu time   37.8626: real time   37.9079
    ORTHCH:  cpu time    0.2508: real time    0.2508
       DOS:  cpu time    0.0002: real time    0.0002
    CHARGE:  cpu time    1.0936: real time    1.0942
    MIXING:  cpu time    0.0373: real time    0.0373
    --------------------------------------------
      LOOP:  cpu time   43.2595: real time   43.3124

 eigenvalue-minimisations  :  1141
 total energy-change (2. order) :-0.3658603E+02  (-0.1959195E+01)
 number of electron     385.0001343 magnetization      52.9549097
 augmentation part      247.2984694 magnetization      30.7557896

 Broyden mixing:
  rms(total) = 0.91847E+00    rms(broyden)= 0.91831E+00
  rms(prec ) = 0.92771E+00
  weight for this iteration     100.00

 eigenvalues of (default mixing * dielectric matrix)
  average eigenvalue GAMMA=   1.3328
  3.8658  1.5083  0.7742  0.7742  0.6408  0.4337

 Free energy of the ion-electron system (eV)
  ---------------------------------------------------
  alpha Z        PSCENC =        38.91177548
  Ewald energy   TEWEN  =    145999.83118023
  -Hartree energ DENC   =   -190326.20857045
  -exchange      EXHF   =         0.00000000
  -V(xc)+E(xc)   XCENC  =      1682.16194881
  PAW double counting   =     45882.54460430   -49667.09723510
  entropy T*S    EENTRO =         0.00000000
  eigenvalues    EBANDS =     -2229.48922682
  atomic energy  EATOM  =     48682.74546302
  Solvation  Ediel_sol  =         0.00000000
  ---------------------------------------------------
  free energy    TOTEN  =        63.39993947 eV

  energy without entropy =       63.39993947  energy(sigma->0) =       63.39993947


--------------------------------------------------------------------------------------------------------




----------------------------------------- Iteration    1(  19)  ---------------------------------------


    POTLOK:  cpu time    1.1064: real time    1.1078
    SETDIJ:  cpu time    0.0198: real time    0.0204
    EDDIAG:  cpu time    2.8642: real time    2.8670
  RMM-DIIS:  cpu time   38.2756: real time   38.3144
    ORTHCH:  cpu time    0.2402: real time    0.2402
       DOS:  cpu time    0.0002: real time    0.0002
    CHARGE:  cpu time    1.1104: real time    1.1115
    MIXING:  cpu time    0.0412: real time    0.0412
    --------------------------------------------
      LOOP:  cpu time   43.6617: real time   43.7091

 eigenvalue-minimisations  :  1138
 total energy-change (2. order) :-0.5761671E+02  (-0.4130527E+01)
 number of electron     385.0001334 magnetization      44.8777472
 augmentation part      247.0332341 magnetization      28.2221915

 Broyden mixing:
  rms(total) = 0.72516E+00    rms(broyden)= 0.72423E+00
  rms(prec ) = 0.73338E+00
  weight for this iteration     100.00

 eigenvalues of (default mixing * dielectric matrix)
  average eigenvalue GAMMA=   1.3631
  4.5540  1.7376  0.9186  0.7105  0.7105  0.4749  0.4354

 Free energy of the ion-electron system (eV)
  ---------------------------------------------------
  alpha Z        PSCENC =        38.91177548
  Ewald energy   TEWEN  =    145999.83118023
  -Hartree energ DENC   =   -190322.51397766
  -exchange      EXHF   =         0.00000000
  -V(xc)+E(xc)   XCENC  =      1638.52295877
  PAW double counting   =     45803.56155687   -49576.69939322
  entropy T*S    EENTRO =         0.00000000
  eigenvalues    EBANDS =     -2258.57632936
  atomic energy  EATOM  =     48682.74546302
  Solvation  Ediel_sol  =         0.00000000
  ---------------------------------------------------
  free energy    TOTEN  =         5.78323413 eV

  energy without entropy =        5.78323413  energy(sigma->0) =        5.78323413


--------------------------------------------------------------------------------------------------------




----------------------------------------- Iteration    1(  20)  ---------------------------------------


    POTLOK:  cpu time    1.1092: real time    1.1141
    SETDIJ:  cpu time    0.0202: real time    0.0207
    EDDIAG:  cpu time    2.8512: real time    2.8537
  RMM-DIIS:  cpu time   37.0858: real time   37.1139
    ORTHCH:  cpu time    0.2312: real time    0.2314
       DOS:  cpu time    0.0002: real time    0.0002
    CHARGE:  cpu time    1.1008: real time    1.1016
    MIXING:  cpu time    0.0472: real time    0.0472
    --------------------------------------------
      LOOP:  cpu time   42.4497: real time   42.4898

 eigenvalue-minimisations  :  1139
 total energy-change (2. order) :-0.3215135E+02  (-0.3371575E+01)
 number of electron     385.0001328 magnetization      37.0821261
 augmentation part      246.5218969 magnetization      24.0313074

 Broyden mixing:
  rms(total) = 0.54940E+00    rms(broyden)= 0.54867E+00
  rms(prec ) = 0.55677E+00
  weight for this iteration     100.00

 eigenvalues of (default mixing * dielectric matrix)
  average eigenvalue GAMMA=   1.4949
  5.6096  2.2502  0.9897  0.7794  0.7794  0.6629  0.4441  0.4441

 Free energy of the ion-electron system (eV)
  ---------------------------------------------------
  alpha Z        PSCENC =        38.91177548
  Ewald energy   TEWEN  =    145999.83118023
  -Hartree energ DENC   =   -190321.28683564
  -exchange      EXHF   =         0.00000000
  -V(xc)+E(xc)   XCENC  =      1615.96020646
  PAW double counting   =     45699.22472591   -49466.48777068
  entropy T*S    EENTRO =         0.00000000
  eigenvalues    EBANDS =     -2275.26686502
  atomic energy  EATOM  =     48682.74546302
  Solvation  Ediel_sol  =         0.00000000
  ---------------------------------------------------
  free energy    TOTEN  =       -26.36812024 eV

  energy without entropy =      -26.36812024  energy(sigma->0) =      -26.36812024


--------------------------------------------------------------------------------------------------------




----------------------------------------- Iteration    1(  21)  ---------------------------------------


    POTLOK:  cpu time    1.1086: real time    1.1099
    SETDIJ:  cpu time    0.0203: real time    0.0203
    EDDIAG:  cpu time    2.8553: real time    2.8574
  RMM-DIIS:  cpu time   36.9719: real time   37.0016
    ORTHCH:  cpu time    0.2311: real time    0.2315
       DOS:  cpu time    0.0002: real time    0.0002
    CHARGE:  cpu time    1.0987: real time    1.0993
    MIXING:  cpu time    0.0501: real time    0.0501
    --------------------------------------------
      LOOP:  cpu time   42.3400: real time   42.3770

 eigenvalue-minimisations  :  1137
 total energy-change (2. order) :-0.2505484E+02  (-0.2591635E+01)
 number of electron     385.0001330 magnetization      29.3441581
 augmentation part      246.5859986 magnetization      21.2353525

 Broyden mixing:
  rms(total) = 0.45299E+00    rms(broyden)= 0.45175E+00
  rms(prec ) = 0.45784E+00
  weight for this iteration     100.00

 eigenvalues of (default mixing * dielectric matrix)
  average eigenvalue GAMMA=   1.5729
  6.8477  2.5184  1.0585  0.8313  0.8313  0.6593  0.4352  0.4913  0.4828

 Free energy of the ion-electron system (eV)
  ---------------------------------------------------
  alpha Z        PSCENC =        38.91177548
  Ewald energy   TEWEN  =    145999.83118023
  -Hartree energ DENC   =   -190301.65198906
  -exchange      EXHF   =         0.00000000
  -V(xc)+E(xc)   XCENC  =      1596.86048763
  PAW double counting   =     45598.35267129   -49357.76284145
  entropy T*S    EENTRO =        -0.00000000
  eigenvalues    EBANDS =     -2308.70970329
  atomic energy  EATOM  =     48682.74546302
  Solvation  Ediel_sol  =         0.00000000
  ---------------------------------------------------
  free energy    TOTEN  =       -51.42295615 eV

  energy without entropy =      -51.42295615  energy(sigma->0) =      -51.42295615


--------------------------------------------------------------------------------------------------------




----------------------------------------- Iteration    1(  22)  ---------------------------------------


    POTLOK:  cpu time    1.1076: real time    1.1087
    SETDIJ:  cpu time    0.0205: real time    0.0212
    EDDIAG:  cpu time    2.8577: real time    2.8597
  RMM-DIIS:  cpu time   36.9406: real time   36.9742
    ORTHCH:  cpu time    0.2334: real time    0.2338
       DOS:  cpu time    0.0002: real time    0.0002
    CHARGE:  cpu time    1.1063: real time    1.1069
    MIXING:  cpu time    0.0556: real time    0.0556
    --------------------------------------------
      LOOP:  cpu time   42.3255: real time   42.3664

 eigenvalue-minimisations  :  1137
 total energy-change (2. order) :-0.1854917E+02  (-0.2113022E+01)
 number of electron     385.0001329 magnetization      24.9750623
 augmentation part      246.4535387 magnetization      20.0242741

 Broyden mixing:
  rms(total) = 0.34430E+00    rms(broyden)= 0.34355E+00
  rms(prec ) = 0.35103E+00
  weight for this iteration     100.00

 eigenvalues of (default mixing * dielectric matrix)
  average eigenvalue GAMMA=   1.6190
  7.7905  2.7200  0.9759  0.9759  1.0030  0.6711  0.5889  0.5889  0.4380  0.4380

 Free energy of the ion-electron system (eV)
  ---------------------------------------------------
  alpha Z        PSCENC =        38.91177548
  Ewald energy   TEWEN  =    145999.83118023
  -Hartree energ DENC   =   -190303.98410923
  -exchange      EXHF   =         0.00000000
  -V(xc)+E(xc)   XCENC  =      1582.98119205
  PAW double counting   =     45562.14023219   -49318.48166838
  entropy T*S    EENTRO =         0.00000000
  eigenvalues    EBANDS =     -2314.11619216
  atomic energy  EATOM  =     48682.74546302
  Solvation  Ediel_sol  =         0.00000000
  ---------------------------------------------------
  free energy    TOTEN  =       -69.97212681 eV

  energy without entropy =      -69.97212681  energy(sigma->0) =      -69.97212681


--------------------------------------------------------------------------------------------------------




----------------------------------------- Iteration    1(  23)  ---------------------------------------


    POTLOK:  cpu time    1.4767: real time    1.4998
    SETDIJ:  cpu time    0.0202: real time    0.0208
    EDDIAG:  cpu time    2.8493: real time    2.8514
  RMM-DIIS:  cpu time   36.3426: real time   36.3697
    ORTHCH:  cpu time    0.2349: real time    0.2355
       DOS:  cpu time    0.0002: real time    0.0002
    CHARGE:  cpu time    1.1128: real time    1.1139
    MIXING:  cpu time    0.0613: real time    0.0614
    --------------------------------------------
      LOOP:  cpu time   42.1019: real time   42.1594

 eigenvalue-minimisations  :  1139
 total energy-change (2. order) :-0.8746336E+01  (-0.7856222E+00)
 number of electron     385.0001327 magnetization      20.6405420
 augmentation part      246.4275191 magnetization      18.3061850

 Broyden mixing:
  rms(total) = 0.29228E+00    rms(broyden)= 0.29174E+00
  rms(prec ) = 0.29739E+00
  weight for this iteration     100.00

 eigenvalues of (default mixing * dielectric matrix)
  average eigenvalue GAMMA=   1.6488
  8.7318  2.8793  1.1227  1.1227  0.9544  0.6259  0.6259  0.6549  0.5519  0.4333
  0.4333

 Free energy of the ion-electron system (eV)
  ---------------------------------------------------
  alpha Z        PSCENC =        38.91177548
  Ewald energy   TEWEN  =    145999.83118023
  -Hartree energ DENC   =   -190281.49712131
  -exchange      EXHF   =         0.00000000
  -V(xc)+E(xc)   XCENC  =      1575.76979002
  PAW double counting   =     45509.37663204   -49263.98038928
  entropy T*S    EENTRO =         0.00000000
  eigenvalues    EBANDS =     -2339.87579290
  atomic energy  EATOM  =     48682.74546302
  Solvation  Ediel_sol  =         0.00000000
  ---------------------------------------------------
  free energy    TOTEN  =       -78.71846270 eV

  energy without entropy =      -78.71846270  energy(sigma->0) =      -78.71846270


--------------------------------------------------------------------------------------------------------




----------------------------------------- Iteration    1(  24)  ---------------------------------------


    POTLOK:  cpu time    1.1073: real time    1.1080
    SETDIJ:  cpu time    0.0205: real time    0.0206
    EDDIAG:  cpu time    2.8482: real time    2.8507
  RMM-DIIS:  cpu time   36.1929: real time   36.2280
    ORTHCH:  cpu time    0.2314: real time    0.2316
       DOS:  cpu time    0.0002: real time    0.0002
    CHARGE:  cpu time    1.1182: real time    1.1189
    MIXING:  cpu time    0.0666: real time    0.0666
    --------------------------------------------
      LOOP:  cpu time   41.5889: real time   41.6311

 eigenvalue-minimisations  :  1145
 total energy-change (2. order) :-0.6376871E+01  (-0.3807610E+00)
 number of electron     385.0001329 magnetization      17.7400649
 augmentation part      246.5608888 magnetization      16.2161537

 Broyden mixing:
  rms(total) = 0.23369E+00    rms(broyden)= 0.23359E+00
  rms(prec ) = 0.23818E+00
  weight for this iteration     100.00

 eigenvalues of (default mixing * dielectric matrix)
  average eigenvalue GAMMA=   1.6891
  9.2760  3.2108  1.3279  1.3279  0.9182  0.9182  0.6616  0.6616  0.5470  0.5470
  0.4364  0.4364

 Free energy of the ion-electron system (eV)
  ---------------------------------------------------
  alpha Z        PSCENC =        38.91177548
  Ewald energy   TEWEN  =    145999.83118023
  -Hartree energ DENC   =   -190258.97644400
  -exchange      EXHF   =         0.00000000
  -V(xc)+E(xc)   XCENC  =      1569.91066508
  PAW double counting   =     45462.09000638   -49215.12152405
  entropy T*S    EENTRO =         0.00000000
  eigenvalues    EBANDS =     -2364.48645571
  atomic energy  EATOM  =     48682.74546302
  Solvation  Ediel_sol  =         0.00000000
  ---------------------------------------------------
  free energy    TOTEN  =       -85.09533357 eV

  energy without entropy =      -85.09533357  energy(sigma->0) =      -85.09533357


--------------------------------------------------------------------------------------------------------




----------------------------------------- Iteration    1(  25)  ---------------------------------------


    POTLOK:  cpu time    1.1087: real time    1.1104
    SETDIJ:  cpu time    0.0202: real time    0.0208
    EDDIAG:  cpu time    2.8589: real time    2.8613
  RMM-DIIS:  cpu time   36.5737: real time   36.6087
    ORTHCH:  cpu time    0.2309: real time    0.2309
       DOS:  cpu time    0.0002: real time    0.0002
    CHARGE:  cpu time    1.1193: real time    1.1203
    MIXING:  cpu time    0.0727: real time    0.0727
    --------------------------------------------
      LOOP:  cpu time   41.9882: real time   42.0318

 eigenvalue-minimisations  :  1138
 total energy-change (2. order) :-0.5398225E+01  (-0.1321926E+00)
 number of electron     385.0001329 magnetization      14.6811288
 augmentation part      246.6832518 magnetization      13.5053107

 Broyden mixing:
  rms(total) = 0.17398E+00    rms(broyden)= 0.17393E+00
  rms(prec ) = 0.17651E+00
  weight for this iteration     100.00

 eigenvalues of (default mixing * dielectric matrix)
  average eigenvalue GAMMA=   1.7139
  9.9066  3.5364  1.5446  1.0945  1.0945  1.1007  0.7013  0.7013  0.6257  0.5521
  0.5521  0.4356  0.4356

 Free energy of the ion-electron system (eV)
  ---------------------------------------------------
  alpha Z        PSCENC =        38.91177548
  Ewald energy   TEWEN  =    145999.83118023
  -Hartree energ DENC   =   -190219.20978195
  -exchange      EXHF   =         0.00000000
  -V(xc)+E(xc)   XCENC  =      1564.49689029
  PAW double counting   =     45397.71114819   -49151.39700280
  entropy T*S    EENTRO =         0.00000000
  eigenvalues    EBANDS =     -2403.58323113
  atomic energy  EATOM  =     48682.74546302
  Solvation  Ediel_sol  =         0.00000000
  ---------------------------------------------------
  free energy    TOTEN  =       -90.49355867 eV

  energy without entropy =      -90.49355867  energy(sigma->0) =      -90.49355867


--------------------------------------------------------------------------------------------------------




----------------------------------------- Iteration    1(  26)  ---------------------------------------


    POTLOK:  cpu time    1.1038: real time    1.1048
    SETDIJ:  cpu time    0.0203: real time    0.0209
    EDDIAG:  cpu time    2.8500: real time    2.8522
  RMM-DIIS:  cpu time   35.9669: real time   35.9943
    ORTHCH:  cpu time    0.2345: real time    0.2350
       DOS:  cpu time    0.0002: real time    0.0002
    CHARGE:  cpu time    1.1173: real time    1.1181
    MIXING:  cpu time    0.0782: real time    0.0785
    --------------------------------------------
      LOOP:  cpu time   41.3752: real time   41.4197

 eigenvalue-minimisations  :  1138
 total energy-change (2. order) :-0.3821970E+01  (-0.5752380E-01)
 number of electron     385.0001329 magnetization      11.3928782
 augmentation part      246.6190146 magnetization      10.3512823

 Broyden mixing:
  rms(total) = 0.13334E+00    rms(broyden)= 0.13332E+00
  rms(prec ) = 0.13578E+00
  weight for this iteration     100.00

 eigenvalues of (default mixing * dielectric matrix)
  average eigenvalue GAMMA=   1.7626
 10.4855  3.8536  2.1400  1.2149  1.2149  0.9220  0.9220  0.7044  0.7044  0.5597
  0.5597  0.5268  0.4344  0.4344

 Free energy of the ion-electron system (eV)
  ---------------------------------------------------
  alpha Z        PSCENC =        38.91177548
  Ewald energy   TEWEN  =    145999.83118023
  -Hartree energ DENC   =   -190199.13042265
  -exchange      EXHF   =         0.00000000
  -V(xc)+E(xc)   XCENC  =      1560.75351605
  PAW double counting   =     45380.84344448   -49137.36838703
  entropy T*S    EENTRO =         0.00000000
  eigenvalues    EBANDS =     -2420.90209812
  atomic energy  EATOM  =     48682.74546302
  Solvation  Ediel_sol  =         0.00000000
  ---------------------------------------------------
  free energy    TOTEN  =       -94.31552853 eV

  energy without entropy =      -94.31552853  energy(sigma->0) =      -94.31552853


--------------------------------------------------------------------------------------------------------




----------------------------------------- Iteration    1(  27)  ---------------------------------------


    POTLOK:  cpu time    1.1304: real time    1.1365
    SETDIJ:  cpu time    0.0208: real time    0.0214
    EDDIAG:  cpu time    2.8586: real time    2.8611
  RMM-DIIS:  cpu time   38.7179: real time   38.7463
    ORTHCH:  cpu time    0.2357: real time    0.2357
       DOS:  cpu time    0.0002: real time    0.0002
    CHARGE:  cpu time    1.1189: real time    1.1199
    MIXING:  cpu time    0.0850: real time    0.0850
    --------------------------------------------
      LOOP:  cpu time   44.1713: real time   44.2127

 eigenvalue-minimisations  :  1137
 total energy-change (2. order) :-0.2755794E+01  (-0.2730665E-01)
 number of electron     385.0001328 magnetization       8.9528757
 augmentation part      246.5839645 magnetization       7.9819320

 Broyden mixing:
  rms(total) = 0.97265E-01    rms(broyden)= 0.97252E-01
  rms(prec ) = 0.98976E-01
  weight for this iteration     100.00

 eigenvalues of (default mixing * dielectric matrix)
  average eigenvalue GAMMA=   1.7958
 10.9108  4.3882  2.5755  1.1659  1.1659  1.0227  1.0227  0.8514  0.6716  0.6716
  0.5638  0.5638  0.4354  0.4354  0.4922

 Free energy of the ion-electron system (eV)
  ---------------------------------------------------
  alpha Z        PSCENC =        38.91177548
  Ewald energy   TEWEN  =    145999.83118023
  -Hartree energ DENC   =   -190180.84434655
  -exchange      EXHF   =         0.00000000
  -V(xc)+E(xc)   XCENC  =      1557.94589269
  PAW double counting   =     45385.30697202   -49143.74774724
  entropy T*S    EENTRO =         0.00000000
  eigenvalues    EBANDS =     -2437.22051228
  atomic energy  EATOM  =     48682.74546302
  Solvation  Ediel_sol  =         0.00000000
  ---------------------------------------------------
  free energy    TOTEN  =       -97.07132263 eV

  energy without entropy =      -97.07132263  energy(sigma->0) =      -97.07132263


--------------------------------------------------------------------------------------------------------




----------------------------------------- Iteration    1(  28)  ---------------------------------------


    POTLOK:  cpu time    1.1106: real time    1.1119
    SETDIJ:  cpu time    0.0203: real time    0.0209
    EDDIAG:  cpu time    2.8474: real time    2.8499
  RMM-DIIS:  cpu time   36.8658: real time   36.9025
    ORTHCH:  cpu time    0.2296: real time    0.2301
       DOS:  cpu time    0.0002: real time    0.0002
    CHARGE:  cpu time    1.1240: real time    1.1249
    MIXING:  cpu time    0.0919: real time    0.0919
    --------------------------------------------
      LOOP:  cpu time   42.2933: real time   42.3385

 eigenvalue-minimisations  :  1137
 total energy-change (2. order) :-0.2128285E+01  (-0.9639468E-02)
 number of electron     385.0001329 magnetization       6.4929770
 augmentation part      246.5822894 magnetization       5.5516669

 Broyden mixing:
  rms(total) = 0.70794E-01    rms(broyden)= 0.70784E-01
  rms(prec ) = 0.72139E-01
  weight for this iteration     100.00

 eigenvalues of (default mixing * dielectric matrix)
  average eigenvalue GAMMA=   1.8588
 11.4499  5.1304  2.7353  1.5598  1.2295  1.2295  0.9590  0.9590  0.6931  0.6931
  0.6281  0.5611  0.5611  0.4832  0.4344  0.4344

 Free energy of the ion-electron system (eV)
  ---------------------------------------------------
  alpha Z        PSCENC =        38.91177548
  Ewald energy   TEWEN  =    145999.83118023
  -Hartree energ DENC   =   -190161.44431770
  -exchange      EXHF   =         0.00000000
  -V(xc)+E(xc)   XCENC  =      1555.68004353
  PAW double counting   =     45383.69851923   -49142.45458816
  entropy T*S    EENTRO =        -0.00000000
  eigenvalues    EBANDS =     -2456.16768360
  atomic energy  EATOM  =     48682.74546302
  Solvation  Ediel_sol  =         0.00000000
  ---------------------------------------------------
  free energy    TOTEN  =       -99.19960797 eV

  energy without entropy =      -99.19960797  energy(sigma->0) =      -99.19960797


--------------------------------------------------------------------------------------------------------




----------------------------------------- Iteration    1(  29)  ---------------------------------------


    POTLOK:  cpu time    1.1091: real time    1.1103
    SETDIJ:  cpu time    0.0200: real time    0.0205
    EDDIAG:  cpu time    2.8473: real time    2.8496
  RMM-DIIS:  cpu time   37.2602: real time   37.2948
    ORTHCH:  cpu time    0.2425: real time    0.2429
       DOS:  cpu time    0.0002: real time    0.0002
    CHARGE:  cpu time    1.1017: real time    1.1028
    MIXING:  cpu time    0.0989: real time    0.0989
    --------------------------------------------
      LOOP:  cpu time   42.6837: real time   42.7264

 eigenvalue-minimisations  :  1137
 total energy-change (2. order) :-0.1733955E+01  (-0.5853486E-02)
 number of electron     385.0001329 magnetization       4.8822938
 augmentation part      246.6162680 magnetization       3.9751227

 Broyden mixing:
  rms(total) = 0.50841E-01    rms(broyden)= 0.50829E-01
  rms(prec ) = 0.51972E-01
  weight for this iteration     100.00

 eigenvalues of (default mixing * dielectric matrix)
  average eigenvalue GAMMA=   1.9074
 11.8723  5.8850  3.0843  2.0368  1.1394  1.1394  1.0207  1.0207  0.7188  0.7188
  0.7268  0.5643  0.5643  0.5860  0.4341  0.4341  0.4795

 Free energy of the ion-electron system (eV)
  ---------------------------------------------------
  alpha Z        PSCENC =        38.91177548
  Ewald energy   TEWEN  =    145999.83118023
  -Hartree energ DENC   =   -190141.53499406
  -exchange      EXHF   =         0.00000000
  -V(xc)+E(xc)   XCENC  =      1553.80730582
  PAW double counting   =     45381.74493981   -49139.95111093
  entropy T*S    EENTRO =         0.00000000
  eigenvalues    EBANDS =     -2476.48812262
  atomic energy  EATOM  =     48682.74546302
  Solvation  Ediel_sol  =         0.00000000
  ---------------------------------------------------
  free energy    TOTEN  =      -100.93356325 eV

  energy without entropy =     -100.93356325  energy(sigma->0) =     -100.93356325


--------------------------------------------------------------------------------------------------------




----------------------------------------- Iteration    1(  30)  ---------------------------------------


    POTLOK:  cpu time    1.1076: real time    1.1100
    SETDIJ:  cpu time    0.0204: real time    0.0210
    EDDIAG:  cpu time    3.1920: real time    3.2119
  RMM-DIIS:  cpu time   36.1793: real time   36.2061
    ORTHCH:  cpu time    0.2416: real time    0.2417
       DOS:  cpu time    0.0002: real time    0.0002
    CHARGE:  cpu time    1.1213: real time    1.1223
    MIXING:  cpu time    0.1059: real time    0.1059
    --------------------------------------------
      LOOP:  cpu time   41.9718: real time   42.0252

 eigenvalue-minimisations  :  1138
 total energy-change (2. order) :-0.6859894E+00  (-0.1888524E-02)
 number of electron     385.0001329 magnetization       3.8127599
 augmentation part      246.5875696 magnetization       2.9055944

 Broyden mixing:
  rms(total) = 0.34669E-01    rms(broyden)= 0.34662E-01
  rms(prec ) = 0.35446E-01
  weight for this iteration     100.00

 eigenvalues of (default mixing * dielectric matrix)
  average eigenvalue GAMMA=   1.9407
 12.1380  6.5911  3.4551  2.2433  1.1902  1.1902  1.1611  0.9533  0.9533  0.6989
  0.6989  0.6524  0.5570  0.5570  0.5572  0.4348  0.4348  0.4664

[...]
  0.000  -0.000  -0.000  -0.000  -0.000   0.000   0.000  -0.000   0.000  -0.000   0.000  -0.000   0.000   0.000   0.000  -0.000
 -0.000   0.000  -0.000   0.000  -0.000  -0.000  -0.000  -0.000  -0.000  -0.000  -0.000   0.000   0.000  -0.000   0.000   0.000


------------------------ aborting loop because EDIFF is reached ----------------------------------------


 


 total charge     
 
# of ion     s       p       d       tot
----------------------------------------
  1        0.478   0.481   9.191  10.149
  2        0.460   0.196   9.256   9.913
  3        0.442   0.236   9.238   9.916
  4        0.437   0.262   9.220   9.919
  5        0.442   0.241   9.218   9.902
  6        0.439   0.264   9.220   9.924
  7        0.443   0.196   9.261   9.899
  8        0.464   0.414   9.204  10.082
  9        0.438   0.405   9.217  10.061
 10        0.448   0.404   9.213  10.064
 11        0.448   0.375   9.197  10.019
 12        0.437   0.278   9.205   9.920
 13        0.439   0.394   9.211  10.044
 14        0.454   0.178   9.264   9.897
 15        0.453   0.209   9.247   9.910
 16        0.453   0.205   9.249   9.907
 17        0.459   0.216   9.240   9.916
 18        0.461   0.214   9.241   9.916
 19        0.451   0.207   9.253   9.911
 20        0.465   0.179   9.259   9.903
 21        0.456   0.209   9.245   9.910
 22        0.456   0.202   9.260   9.918
 23        0.445   0.261   9.223   9.929
 24        0.479   0.209   9.239   9.927
 25        0.459   0.257   9.211   9.927
 26        0.459   0.213   9.252   9.923
 27        0.446   0.269   9.222   9.937
 28        0.465   0.171   9.268   9.904
 29        0.463   0.182   9.261   9.906
 30        0.449   0.268   9.212   9.929
 31        0.457   0.259   9.208   9.923
 32        0.459   0.267   9.203   9.928
 33        0.454   0.269   9.211   9.934
 34        0.462   0.246   9.220   9.927
 35        0.463   0.223   9.245   9.932
------------------------------------------------
tot       15.882   9.058 323.085 348.025
 


 magnetization (x)
 
# of ion     s       p       d       tot
----------------------------------------
  1       -0.000   0.001   0.022   0.023
  2       -0.000   0.009  -0.005   0.005
  3        0.003   0.005   0.004   0.013
  4        0.011   0.008   0.004   0.023
  5       -0.001   0.001   0.005   0.005
  6        0.014   0.010   0.002   0.026
  7        0.002   0.003   0.006   0.011
  8        0.023   0.001   0.005   0.029
  9        0.005   0.003   0.001   0.010
 10        0.013   0.003  -0.000   0.015
 11        0.016   0.001   0.006   0.024
 12        0.000   0.004   0.000   0.004
 13       -0.000   0.003   0.024   0.027
 14        0.003   0.004   0.004   0.012
 15       -0.000   0.006   0.005   0.011
 16       -0.000   0.003   0.007   0.009
 17       -0.001  -0.000   0.001   0.000
 18        0.000  -0.000   0.003   0.003
 19       -0.000   0.006   0.007   0.013
 20        0.002   0.005   0.009   0.017
 21        0.000   0.002   0.003   0.005
 22        0.002   0.004   0.008   0.014
 23       -0.000   0.008   0.004   0.012
 24        0.001   0.001   0.005   0.007
 25       -0.000  -0.000   0.002   0.001
 26       -0.000   0.002   0.005   0.008
 27        0.001   0.007   0.006   0.013
 28        0.004   0.004   0.006   0.014
 29       -0.000   0.002   0.003   0.005
 30        0.013   0.010   0.006   0.028
 31        0.004   0.004   0.006   0.014
 32        0.007   0.004   0.009   0.021
 33        0.010   0.008   0.005   0.023
 34       -0.001  -0.000   0.010   0.009
 35       -0.000   0.008  -0.004   0.003
------------------------------------------------
tot        0.133   0.139   0.185   0.457
 
    CHARGE:  cpu time    1.1071: real time    1.1077
    FORLOC:  cpu time    0.1094: real time    0.1094
    FORNL :  cpu time   19.3564: real time   19.3706
    STRESS:  cpu time   61.9414: real time   61.9947
    FORCOR:  cpu time    1.1662: real time    1.1678
    FORHAR:  cpu time    0.2262: real time    0.2264
    MIXING:  cpu time    0.0294: real time    0.0294
    OFIELD:  cpu time    0.0001: real time    0.0001

  FORCE on cell =-STRESS in cart. coord.  units (eV):
  Direction    XX          YY          ZZ          XY          YZ          ZX
  --------------------------------------------------------------------------------------
  Alpha Z    38.91178    38.91178    38.91178
  Ewald   49905.19381 57837.14298 38258.63642  3924.42918   567.72859 -2043.44690
  Hartree 64518.88955 71962.99398 53637.14739  3650.35172   493.34668 -1885.46290
  E(xc)   -2247.24368 -2246.79267 -2248.34517     0.32055     0.14350    -0.19683
  Local  ************************-95338.36661 -7568.19903 -1059.29920  3926.05722
  n-local  -813.50179  -814.57331  -816.26633    -0.38813     0.15493    -0.06925
  augment  3294.34051  3288.54975  3298.69703    -2.93352    -0.87324     1.24602
  Kinetic  3154.73835  3146.69037  3160.55652    -3.87884    -1.25442     1.95875
  Fock        0.00000     0.00000     0.00000     0.00000     0.00000     0.00000
  -------------------------------------------------------------------------------------
  Total      -9.51282   -10.48213    -9.02898    -0.29806    -0.05316     0.08611
  in kB      -0.66199    -0.72945    -0.62832    -0.02074    -0.00370     0.00599
  external pressure =       -0.67 kB  Pullay stress =        0.00 kB


 VOLUME and BASIS-vectors are now :
 -----------------------------------------------------------------------------
  energy-cutoff  :      295.45
  volume of cell :    23023.28
      direct lattice vectors                 reciprocal lattice vectors
    28.448263039  0.000000000  0.000000000     0.035151531  0.000000000  0.000000000
     0.000000000 28.448263039  0.000000000     0.000000000  0.035151531  0.000000000
     0.000000000  0.000000000 28.448263039     0.000000000  0.000000000  0.035151531

  length of vectors
    28.448263039 28.448263039 28.448263039     0.035151531  0.035151531  0.035151531


 FORCES acting on ions
    electron-ion (+dipol)            ewald-force                    non-local-force                 convergence-correction
 -----------------------------------------------------------------------------------------------
   -.311E+03 0.113E+03 -.898E+03   0.310E+03 -.113E+03 0.896E+03   0.197E+00 -.227E+00 0.163E+01   0.420E-02 0.468E-02 0.995E-02
   -.179E+03 0.685E+02 -.231E+04   0.178E+03 -.682E+02 0.230E+04   0.999E+00 -.295E+00 0.909E+01   -.107E-01 0.438E-02 0.180E-01
   -.812E+03 0.133E+04 -.158E+04   0.810E+03 -.133E+04 0.157E+04   0.196E+01 -.321E+01 0.417E+01   -.403E-02 0.970E-02 0.143E-01
   0.873E+03 0.785E+03 -.178E+04   -.872E+03 -.783E+03 0.178E+04   -.962E+00 -.129E+01 0.239E+01   0.154E-02 0.135E-01 0.360E-02
   0.927E+03 -.700E+03 -.180E+04   -.926E+03 0.699E+03 0.179E+04   -.127E+01 0.893E+00 0.291E+01   -.795E-02 0.779E-02 -.501E-02
   -.612E+03 -.108E+04 -.174E+04   0.612E+03 0.108E+04 0.174E+04   0.268E+00 0.138E+01 0.247E+01   0.309E-02 -.133E-01 0.923E-02
   -.175E+04 0.173E+03 -.148E+04   0.174E+04 -.173E+03 0.147E+04   0.709E+01 0.505E+00 0.500E+01   0.123E-02 -.630E-02 0.176E-01
   0.360E+02 0.114E+04 -.114E+03   -.358E+02 -.114E+04 0.114E+03   -.171E+00 -.190E+01 -.252E+00   0.309E-01 0.140E-01 -.636E-02
   0.102E+04 0.475E+02 -.108E+03   -.102E+04 -.479E+02 0.108E+03   -.165E+01 0.319E+00 0.837E-01   0.437E-02 -.965E-02 -.116E-02
   0.195E+03 -.101E+04 -.119E+03   -.194E+03 0.101E+04 0.119E+03   -.131E+01 0.130E+01 -.127E+00   -.137E-02 -.828E-02 0.314E-02
   -.144E+04 -.427E+03 -.298E+03   0.144E+04 0.426E+03 0.299E+03   -.164E+00 0.783E+00 -.123E+01   0.157E-01 -.241E-01 0.760E-02
   -.169E+04 0.105E+04 -.269E+03   0.169E+04 -.105E+04 0.269E+03   -.270E+00 -.806E+00 -.357E+00   0.118E-01 -.143E-03 0.160E-02
   -.266E+03 0.931E+02 0.783E+03   0.266E+03 -.928E+02 -.782E+03   0.714E-01 -.263E+00 -.150E+01   0.125E-02 0.159E-01 -.387E-02
   -.397E+03 0.202E+04 -.782E+03   0.395E+03 -.202E+04 0.779E+03   0.205E+01 -.703E+01 0.317E+01   0.211E-01 0.123E-01 0.122E-02
   0.117E+04 0.170E+04 -.796E+03   -.116E+04 -.169E+04 0.794E+03   -.332E+01 -.508E+01 0.230E+01   0.261E-01 0.239E-01 -.391E-02
   0.195E+04 0.696E+03 -.830E+03   -.194E+04 -.694E+03 0.828E+03   -.628E+01 -.164E+01 0.203E+01   -.122E-02 0.370E-02 0.215E-02
   0.197E+04 -.674E+03 -.787E+03   -.197E+04 0.673E+03 0.784E+03   -.557E+01 0.129E+01 0.292E+01   -.478E-02 -.350E-02 -.212E-01
   0.123E+04 -.167E+04 -.803E+03   -.123E+04 0.167E+04 0.800E+03   -.300E+01 0.485E+01 0.257E+01   -.208E-01 -.337E-02 -.101E-01
   -.918E+02 -.205E+04 -.831E+03   0.915E+02 0.204E+04 0.829E+03   0.342E+00 0.648E+01 0.257E+01   -.271E-01 -.139E-01 0.153E-01
   -.140E+04 -.149E+04 -.786E+03   0.140E+04 0.149E+04 0.782E+03   0.502E+01 0.480E+01 0.341E+01   -.364E-01 -.193E-02 -.110E-01
   -.110E+04 0.180E+04 0.637E+03   0.110E+04 -.180E+04 -.636E+03   0.325E+01 -.530E+01 -.138E+01   0.153E-01 -.150E-02 -.147E-01
   0.524E+03 0.205E+04 0.737E+03   -.522E+03 -.204E+04 -.734E+03   -.216E+01 -.718E+01 -.299E+01   0.133E-01 0.376E-02 0.139E-01
   0.152E+04 0.120E+04 0.891E+03   -.152E+04 -.120E+04 -.891E+03   -.264E+01 -.257E+01 -.357E+00   0.144E-01 -.619E-02 0.276E-02
   0.214E+04 0.373E+02 0.771E+03   -.213E+04 -.370E+02 -.767E+03   -.743E+01 -.256E+00 -.336E+01   0.541E-02 -.179E-01 -.810E-02
   0.156E+04 -.115E+04 0.921E+03   -.155E+04 0.114E+04 -.919E+03   -.255E+01 0.148E+01 -.138E+01   -.210E-02 -.783E-02 -.139E-01
   0.606E+03 -.205E+04 0.769E+03   -.604E+03 0.204E+04 -.766E+03   -.183E+01 0.769E+01 -.299E+01   0.130E-02 -.220E-02 0.474E-02
   -.728E+03 -.178E+04 0.827E+03   0.726E+03 0.178E+04 -.826E+03   0.140E+01 0.319E+01 -.378E+00   -.151E-01 -.154E-01 0.905E-02
   -.186E+04 -.102E+04 0.513E+03   0.185E+04 0.102E+04 -.511E+03   0.809E+01 0.394E+01 -.225E+01   -.113E-01 -.136E-02 0.627E-02
   -.212E+04 0.330E+03 0.504E+03   0.211E+04 -.329E+03 -.504E+03   0.759E+01 -.151E+01 -.557E+00   0.296E-02 -.648E-02 -.230E-01
   0.210E+03 0.123E+04 0.173E+04   -.210E+03 -.123E+04 -.173E+04   -.468E+00 -.201E+01 -.233E+01   -.859E-03 0.249E-02 -.590E-02
   0.117E+04 0.313E+02 0.180E+04   -.117E+04 -.313E+02 -.179E+04   -.198E+01 0.534E-01 -.223E+01   0.229E-03 -.286E-02 -.413E-02
   0.290E+03 -.115E+04 0.178E+04   -.290E+03 0.115E+04 -.177E+04   0.575E-01 0.157E+01 -.216E+01   -.595E-02 0.286E-02 -.345E-02
   -.116E+04 -.628E+03 0.166E+04   0.116E+04 0.627E+03 -.166E+04   0.207E+01 0.124E+01 -.226E+01   -.300E-02 0.253E-02 -.340E-02
   -.133E+04 0.923E+03 0.147E+04   0.132E+04 -.921E+03 -.147E+04   0.299E+01 -.206E+01 -.336E+01   -.119E-01 0.563E-02 -.594E-02
   -.139E+03 0.619E+02 0.230E+04   0.138E+03 -.616E+02 -.229E+04   0.741E+00 -.371E+00 -.900E+01   -.592E-02 0.745E-02 -.613E-02
 -----------------------------------------------------------------------------------------------
   -.112E+01 0.940E+00 -.611E+01   -.682E-12 0.256E-12 0.227E-11   0.119E+01 -.124E+01 0.624E+01   0.359E-02 -.116E-01 -.107E-01
 
 
 POSITION                                       TOTAL-FORCE (eV/Angst)
 -----------------------------------------------------------------------------------
     14.67536     14.04172     15.54018         0.002246      0.001428      0.005638
     14.62997     14.04808     17.90325        -0.003235      0.001868      0.010943
     15.31374     11.96021     16.58453         0.000582      0.005730      0.009662
     12.86203     12.77698     16.65547         0.000313      0.009504      0.004296
     12.82614     15.35038     16.65758        -0.002252      0.003719     -0.002393
     15.31231     16.12009     16.63927         0.001781     -0.006797      0.008319
     16.82504     14.01594     16.60019        -0.000364     -0.003395      0.012041
     14.00447     12.03338     14.38065         0.016996      0.005677     -0.003982
     12.49602     14.05076     14.38385         0.001929     -0.003388      0.000211
     13.95789     16.06634     14.39536        -0.004086     -0.003515      0.002640
     16.50654     15.25842     14.48757         0.009871     -0.013482      0.005824
     16.56909     12.65757     14.49030         0.004564      0.000350      0.002159
     14.64047     14.07273     13.07989         0.000210      0.005811     -0.001919
     14.57869      9.96457     15.36394         0.020213      0.009381      0.000113
     12.17997     10.80297     15.36008         0.012362      0.014744     -0.000531
     10.72333     12.82870     15.39112        -0.000577      0.004098      0.002208
     10.69924     15.37911     15.30018        -0.003805     -0.000076     -0.013732
     12.14397     17.35621     15.34316        -0.010671     -0.001573     -0.005775
     14.54773     18.13683     15.40738        -0.018232     -0.009439      0.013999
     16.93240     17.45636     15.34043        -0.020916     -0.001754     -0.001783
     15.68300     10.74036     13.20621         0.007665      0.000049     -0.006102
     13.27190     10.04121     13.22738         0.010188      0.002728      0.005065
     11.76505     12.03188     13.12816         0.007669     -0.001611     -0.001760
     10.35838     14.07095     13.22055         0.002726     -0.008447     -0.005767
     11.71147     16.14506     13.11197        -0.002792     -0.002767     -0.007555
     13.25744     18.05924     13.22831        -0.003184     -0.002510      0.001277
     15.67547     17.35293     13.19575        -0.007554     -0.008474      0.000688
     18.02652     16.58272     13.23949        -0.006041     -0.002052      0.002187
     18.06412     14.05472     13.09895         0.001303     -0.003929     -0.011489
     13.93419     11.99700     11.82774         0.000462      0.002092     -0.003956
     12.41055     14.06990     11.79783        -0.001087     -0.001236     -0.004348
     13.92138     16.13727     11.81886        -0.004270      0.001274     -0.002951
     16.36755     15.35891     11.84629        -0.001717      0.000353     -0.003626
     16.35220     12.76325     11.93170        -0.006206      0.002010     -0.005153
     14.62100     14.06185     10.66104        -0.004091      0.003630     -0.004445
 -----------------------------------------------------------------------------------
    total drift:                                0.071051     -0.315991      0.122302


--------------------------------------------------------------------------------------------------------



  FREE ENERGIE OF THE ION-ELECTRON SYSTEM (eV)
  ---------------------------------------------------
  free  energy   TOTEN  =      -102.49165208 eV

  energy  without entropy=     -102.49165208  energy(sigma->0) =     -102.49165208
 
 d Force = 0.2497297E-03[ 0.243E-03, 0.256E-03]  d Energy = 0.2530227E-03-0.329E-05
 d Force =-0.1200244E+01[-0.120E+01,-0.120E+01]  d Ewald  =-0.1200245E+01 0.479E-06


--------------------------------------------------------------------------------------------------------


    POTLOK:  cpu time    1.1410: real time    1.1435


--------------------------------------------------------------------------------------------------------


 Steepest descent step on ions:
 trial-energy change:   -0.000253  1 .order   -0.000250   -0.000256   -0.000243
  (g-gl).g = 0.256E-03      g.g   = 0.256E-03  gl.gl    = 0.000E+00
 g(Force)  = 0.256E-03   g(Stress)= 0.000E+00 ortho     = 0.000E+00
 gamma     =   0.00000
 trial     =   1.00000
 opt step  =   4.00000  (harmonic =  20.28365) maximal distance =0.00389260
 next E    =  -102.493996   (d E  =  -0.00260)


--------------------------------------------------------------------------------------------------------


  
 reached required accuracy - stopping structural energy minimisation
     LOOP+:  cpu time  251.5245: real time  251.8027
    4ORBIT:  cpu time    0.0000: real time    0.0000
 


 total charge     
 
# of ion     s       p       d       tot
----------------------------------------
  1        0.478   0.481   9.191  10.149
  2        0.460   0.196   9.256   9.913
  3        0.442   0.236   9.238   9.916
  4        0.437   0.262   9.220   9.919
  5        0.442   0.241   9.218   9.902
  6        0.439   0.264   9.220   9.924
  7        0.443   0.196   9.261   9.899
  8        0.464   0.414   9.204  10.082
  9        0.438   0.405   9.217  10.061
 10        0.448   0.404   9.213  10.064
 11        0.448   0.375   9.197  10.019
 12        0.437   0.278   9.205   9.920
 13        0.439   0.394   9.211  10.044
 14        0.454   0.178   9.264   9.897
 15        0.453   0.209   9.247   9.910
 16        0.453   0.205   9.249   9.907
 17        0.459   0.216   9.240   9.916
 18        0.461   0.214   9.241   9.916
 19        0.451   0.207   9.253   9.911
 20        0.465   0.179   9.259   9.903
 21        0.456   0.209   9.245   9.910
 22        0.456   0.202   9.260   9.918
 23        0.445   0.261   9.223   9.929
 24        0.479   0.209   9.239   9.927
 25        0.459   0.257   9.211   9.927
 26        0.459   0.213   9.252   9.923
 27        0.446   0.269   9.222   9.937
 28        0.465   0.171   9.268   9.904
 29        0.463   0.182   9.261   9.906
 30        0.449   0.268   9.212   9.929
 31        0.457   0.259   9.208   9.923
 32        0.459   0.267   9.203   9.928
 33        0.454   0.269   9.211   9.934
 34        0.462   0.246   9.220   9.927
 35        0.463   0.223   9.245   9.932
------------------------------------------------
tot       15.882   9.058 323.085 348.025
 


 magnetization (x)
 
# of ion     s       p       d       tot
----------------------------------------
  1       -0.000   0.001   0.022   0.023
  2       -0.000   0.009  -0.005   0.005
  3        0.003   0.005   0.004   0.013
  4        0.011   0.008   0.004   0.023
  5       -0.001   0.001   0.005   0.005
  6        0.014   0.010   0.002   0.026
  7        0.002   0.003   0.006   0.011
  8        0.023   0.001   0.005   0.029
  9        0.005   0.003   0.001   0.010
 10        0.013   0.003  -0.000   0.015
 11        0.016   0.001   0.006   0.024
 12        0.000   0.004   0.000   0.004
 13       -0.000   0.003   0.024   0.027
 14        0.003   0.004   0.004   0.012
 15       -0.000   0.006   0.005   0.011
 16       -0.000   0.003   0.007   0.009
 17       -0.001  -0.000   0.001   0.000
 18        0.000  -0.000   0.003   0.003
 19       -0.000   0.006   0.007   0.013
 20        0.002   0.005   0.009   0.017
 21        0.000   0.002   0.003   0.005
 22        0.002   0.004   0.008   0.014
 23       -0.000   0.008   0.004   0.012
 24        0.001   0.001   0.005   0.007
 25       -0.000  -0.000   0.002   0.001
 26       -0.000   0.002   0.005   0.008
 27        0.001   0.007   0.006   0.013
 28        0.004   0.004   0.006   0.014
 29       -0.000   0.002   0.003   0.005
 30        0.013   0.010   0.006   0.028
 31        0.004   0.004   0.006   0.014
 32        0.007   0.004   0.009   0.021
 33        0.010   0.008   0.005   0.023
 34       -0.001  -0.000   0.010   0.009
 35       -0.000   0.008  -0.004   0.003
------------------------------------------------
tot        0.133   0.139   0.185   0.457
 

 total amount of memory used by VASP on root node   186628. kBytes
========================================================================

   base      :      30000. kBytes
   nonl-proj :      15583. kBytes
   fftplans  :      25680. kBytes
   grid      :      64857. kBytes
   one-center:         93. kBytes
   wavefun   :      50415. kBytes
 
  
  
 General timing and accounting informations for this job:
 ========================================================
  
                  Total CPU time used (sec):     2423.680
                            User time (sec):     2380.138
                          System time (sec):       43.542
                         Elapsed time (sec):     2428.377
  
                   Maximum memory used (kb):      306872.
                   Average memory used (kb):           0.
  
                          Minor page faults:      2836922
                          Major page faults:            0
                 Voluntary context switches:         2454
