 vasp.5.4.4.18Apr17-6-g9f103f2a35 (build Jan 23 2020 13:04:52) gamma-only       
  
 executed on           IFC91_ompi date 2020.12.30  14:10:54
 running on   44 total cores
 distrk:  each k-point on   44 cores,    1 groups
 distr:  one band on NCORES_PER_BAND=  11 cores,    4 groups


--------------------------------------------------------------------------------------------------------


 INCAR:
 POTCAR:    PAW_PBE Cu 22Jun2005                  
 POTCAR:    PAW_PBE Cu 22Jun2005                  
   VRHFIN =Cu: d10 p1                                                           
   LEXCH  = PE                                                                  
   EATOM  =  1390.9808 eV,  102.2342 Ry                                         
                                                                                
   TITEL  = PAW_PBE Cu 22Jun2005                                                
   LULTRA =        F    use ultrasoft PP ?                                      
   IUNSCR =        1    unscreen: 0-lin 1-nonlin 2-no                           
   RPACOR =    2.000    partial core radius                                     
   POMASS =   63.546; ZVAL   =   11.000    mass and valenz                      
   RCORE  =    2.300    outmost cutoff radius                                   
   RWIGS  =    2.200; RWIGS  =    1.164    wigner-seitz radius (au A)           
   ENMAX  =  295.446; ENMIN  =  221.585 eV                                      
   ICORE  =        3    local potential                                         
   LCOR   =        T    correct aug charges                                     
   LPAW   =        T    paw PP                                                  
   EAUG   =  586.980                                                            
   DEXC   =    0.000                                                            
   RMAX   =    2.344    core radius for proj-oper                               
   RAUG   =    1.300    factor for augmentation sphere                          
   RDEP   =    2.302    radius for radial grids                                 
   RDEPT  =    1.771    core radius for aug-charge                              
                                                                                
   Atomic configuration                                                         
    9 entries                                                                   
     n  l   j            E        occ.                                          
     1  0  0.50     -8850.2468   2.0000                                         
     2  0  0.50     -1062.3498   2.0000                                         
     2  1  1.50      -916.8226   6.0000                                         
     3  0  0.50      -114.6929   2.0000                                         
     3  1  1.50       -72.1325   6.0000                                         
     3  2  2.50        -5.0394  10.0000                                         
     4  0  0.50        -4.6097   1.0000                                         
     4  1  0.50        -4.0817   0.0000                                         
     4  3  2.50        -1.3606   0.0000                                         
   Description                                                                  
     l       E           TYP  RCUT    TYP  RCUT                                 
     2     -5.0393973     23  2.200                                             
     2     10.8846608     23  2.200                                             
     0     -4.6097109     23  2.200                                             
     0      8.2520465     23  2.200                                             
     1     -2.7211652     23  2.200                                             
     1     21.7055443     23  2.200                                             
     3      2.7211652     23  2.300                                             
  local pseudopotential read in
  partial core-charges read in
  partial kinetic energy density read in
  atomic valenz-charges read in
  non local Contribution for L=           2  read in
    real space projection operators read in
  non local Contribution for L=           2  read in
    real space projection operators read in
  non local Contribution for L=           0  read in
    real space projection operators read in
  non local Contribution for L=           0  read in
    real space projection operators read in
  non local Contribution for L=           1  read in
    real space projection operators read in
  non local Contribution for L=           1  read in
    real space projection operators read in
    PAW grid and wavefunctions read in
 
   number of l-projection  operators is LMAX  =           6
   number of lm-projection operators is LMMAX =          18
 

 ----------------------------------------------------------------------------- 
|                                                                             |
|  ADVICE TO THIS USER RUNNING 'VASP/VAMP'   (HEAR YOUR MASTER'S VOICE ...):  |
|                                                                             |
|      You have a (more or less) 'large supercell' and for larger cells       |
|      it might be more efficient to use real space projection opertators     |
|      So try LREAL= Auto  in the INCAR   file.                               |
|      Mind:          For very  accurate calculation you might also keep the  |
|      reciprocal projection scheme          (i.e. LREAL=.FALSE.)             |
|                                                                             |
 ----------------------------------------------------------------------------- 

  PAW_PBE Cu 22Jun2005                  :
 energy of atom  1       EATOM=-1390.9808
 kinetic energy error for atom=    0.0452 (will be added to EATOM!!)
 
 
 POSCAR: unknown system                          
  positions in direct lattice
  No initial velocities read in
 exchange correlation table for  LEXCH =        8
   RHO(1)=    0.500       N(1)  =     2000
   RHO(2)=  100.500       N(2)  =     4000
 


--------------------------------------------------------------------------------------------------------


 ion  position               nearest neighbor table
   1  0.573  0.478  0.339-   9 2.29   4 2.58   3 2.60   2 2.60   7 2.65  11 2.74
   2  0.596  0.569  0.369-   9 2.30  13 2.56   1 2.60   8 2.64   3 2.65   7 2.79
   3  0.501  0.543  0.351-  12 2.41   9 2.44   8 2.57   1 2.60   4 2.62   2 2.65
   4  0.489  0.449  0.380-  18 2.43  17 2.51  12 2.52   9 2.55   1 2.58   3 2.62  11 2.64
   5  0.390  0.504  0.384-  12 2.37  17 2.43  19 2.50  16 2.62   6 2.63
   6  0.421  0.596  0.406-  12 2.29  22 2.59   5 2.63  19 2.64   8 2.70
   7  0.640  0.483  0.412-   9 2.37  21 2.45  11 2.54   1 2.65  15 2.78   2 2.79
   8  0.521  0.601  0.427-  20 2.44  12 2.53   3 2.57   9 2.59  13 2.63   2 2.64  22 2.69   6 2.70

   9  0.555  0.509  0.418-   1 2.29   2 2.30  20 2.36   7 2.37  18 2.40   3 2.44  13 2.49  12 2.50
                            21 2.54   4 2.55  11 2.55   8 2.59
  10  0.381  0.378  0.491-  17 2.32  25 2.48  23 2.49  16 2.67
  11  0.574  0.415  0.421-  18 2.40  15 2.47   7 2.54   9 2.55  28 2.64   4 2.64   1 2.74  21 2.75

  12  0.463  0.525  0.432-   6 2.29   5 2.37   3 2.41  24 2.44  18 2.47  20 2.48  17 2.50   9 2.50
                             4 2.52   8 2.53  19 2.54  22 2.62
  13  0.608  0.571  0.465-  20 2.38   9 2.49  21 2.53   2 2.56   8 2.63  30 2.79
  14  0.481  0.370  0.452-  18 2.33  17 2.49  23 2.55  28 2.70
  15  0.644  0.405  0.482-  21 2.33  11 2.47  28 2.48   7 2.78
  16  0.333  0.456  0.450-  17 2.35  25 2.49  19 2.49   5 2.62  10 2.67
  17  0.420  0.442  0.444-  10 2.32  16 2.35   5 2.43  18 2.44  14 2.49  12 2.50   4 2.51  24 2.63
                            25 2.77
  18  0.508  0.452  0.470-  14 2.33  11 2.40  26 2.40   9 2.40  28 2.41  24 2.43   4 2.43  17 2.44
                            12 2.47  20 2.52  23 2.54  21 2.68
  19  0.377  0.536  0.473-  24 2.43  16 2.49   5 2.50  12 2.54  22 2.60  25 2.62   6 2.64  32 2.78

  20  0.529  0.541  0.497-  31 2.35   9 2.36  13 2.38  27 2.40   8 2.44  30 2.45  26 2.46  24 2.48
                            12 2.48  21 2.50  18 2.52  22 2.53
  21  0.601  0.481  0.496-  15 2.33   7 2.45  29 2.46  20 2.50  30 2.51  13 2.53   9 2.54  26 2.55
                            18 2.68  28 2.69  11 2.75
  22  0.450  0.596  0.500-  20 2.53  24 2.56   6 2.59  32 2.59  19 2.60  31 2.61  12 2.62  27 2.66
                            35 2.68   8 2.69
  23  0.457  0.407  0.538-  10 2.49  18 2.54  26 2.54  24 2.54  14 2.55  34 2.56  25 2.68  33 2.74
                            28 2.74
  24  0.447  0.501  0.519-  25 2.33  32 2.38  31 2.41  34 2.43  18 2.43  19 2.43  12 2.44  26 2.46
                            20 2.48  23 2.54  22 2.56  17 2.63
  25  0.371  0.460  0.535-  24 2.33  10 2.48  16 2.49  19 2.62  23 2.68  34 2.71  17 2.77
  26  0.527  0.471  0.557-  33 2.32  29 2.34  18 2.40  31 2.43  36 2.43  20 2.46  24 2.46  28 2.49
                            23 2.54  21 2.55  34 2.59  30 2.59
  27  0.540  0.622  0.535-  20 2.40  31 2.47  37 2.57  30 2.58  35 2.66  22 2.66
  28  0.557  0.391  0.516-  18 2.41  15 2.48  26 2.49  29 2.60  11 2.64  21 2.69  14 2.70  23 2.74

  29  0.608  0.445  0.582-  26 2.34  21 2.46  28 2.60  30 2.72  36 2.73  33 2.75
  30  0.590  0.545  0.566-  20 2.45  36 2.50  21 2.51  37 2.57  27 2.58  31 2.59  26 2.59  29 2.72
                            13 2.79
  31  0.494  0.554  0.577-  35 2.30  38 2.32  37 2.34  20 2.35  24 2.41  26 2.43  27 2.47  32 2.48
                            36 2.53  30 2.59  34 2.61  22 2.61
  32  0.400  0.555  0.573-  24 2.38  31 2.48  34 2.58  22 2.59  35 2.61  19 2.78
  33  0.517  0.413  0.622-  26 2.32  39 2.49  34 2.57  36 2.59  23 2.74  29 2.75
  34  0.443  0.474  0.607-  39 2.42  24 2.43  23 2.56  33 2.57  32 2.58  26 2.59  38 2.60  31 2.61
                            25 2.71
  35  0.459  0.631  0.594-  31 2.30  37 2.60  32 2.61  27 2.66  22 2.68  38 2.69
  36  0.547  0.505  0.640-  39 2.42  26 2.43  30 2.50  31 2.53  33 2.59  37 2.60  38 2.63  29 2.73

  37  0.546  0.602  0.630-  31 2.34  27 2.57  30 2.57  36 2.60  35 2.60  38 2.64
  38  0.463  0.554  0.660-  31 2.32  39 2.47  34 2.60  36 2.63  37 2.64  35 2.69
  39  0.480  0.468  0.690-  34 2.42  36 2.42  38 2.47  33 2.49
 
  LATTYP: Found a simple cubic cell.
 ALAT       =    26.4607660000
  
  Lattice vectors:
  
 A1 = (  26.4607660000,   0.0000000000,   0.0000000000)
 A2 = (   0.0000000000,  26.4607660000,   0.0000000000)
 A3 = (   0.0000000000,   0.0000000000,  26.4607660000)


Analysis of symmetry for initial positions (statically):
=====================================================================
 Subroutine PRICEL returns:
 Original cell was already a primitive cell.
 

 Routine SETGRP: Setting up the symmetry group for a 
 simple cubic supercell.


 Subroutine GETGRP returns: Found  1 space group operations
 (whereof  1 operations were pure point group operations)
 out of a pool of 48 trial point group operations.


The static configuration has the point symmetry C_1 .


Analysis of symmetry for dynamics (positions and initial velocities):
=====================================================================
 Subroutine PRICEL returns:
 Original cell was already a primitive cell.
 

 Routine SETGRP: Setting up the symmetry group for a 
 simple cubic supercell.


 Subroutine GETGRP returns: Found  1 space group operations
 (whereof  1 operations were pure point group operations)
 out of a pool of 48 trial point group operations.


The dynamic configuration has the point symmetry C_1 .


Analysis of structural, dynamic, and magnetic symmetry:
=====================================================================
 Subroutine PRICEL returns:
 Original cell was already a primitive cell.
 

 Routine SETGRP: Setting up the symmetry group for a 
 simple cubic supercell.


 Subroutine GETGRP returns: Found  1 space group operations
 (whereof  1 operations were pure point group operations)
 out of a pool of 48 trial point group operations.


The magnetic configuration has the point symmetry C_1 .


 Subroutine INISYM returns: Found  1 space group operations
 (whereof  1 operations are pure point group operations),
 and found     1 'primitive' translations

 
 
 KPOINTS: Gamma-point only                        
  k-points in reciprocal lattice
Space group operators:
 irot       det(A)        alpha          n_x          n_y          n_z        tau_x        tau_y        tau_z
    1     1.000000     0.000001     1.000000     0.000000     0.000000     0.000000     0.000000     0.000000


--------------------------------------------------------------------------------------------------------




 Dimension of arrays:
   k-points           NKPTS =      1   k-points in BZ     NKDIM =      1   number of bands    NBANDS=    316
   number of dos      NEDOS =    301   number of ions     NIONS =     39
   non local maximal  LDIM  =      6   non local SUM 2l+1 LMDIM =     18
   total plane-waves  NPLWV = ******
   max r-space proj   IRMAX =      1   max aug-charges    IRDMAX=   2396
   dimension x,y,z NGX =   112 NGY =  112 NGZ =  112
   dimension x,y,z NGXF=   224 NGYF=  224 NGZF=  224
   support grid    NGXF=   224 NGYF=  224 NGZF=  224
   ions per type =              39
   NGX,Y,Z   is equivalent  to a cutoff of   7.04,  7.04,  7.04 a.u.
   NGXF,Y,Z  is equivalent  to a cutoff of  14.07, 14.07, 14.07 a.u.

 SYSTEM =  unknown system                          
 POSCAR =  unknown system                          

 Startparameter for this run:
   NWRITE =      2    write-flag & timer
   PREC   = normal    normal or accurate (medium, high low for compatibility)
   ISTART =      0    job   : 0-new  1-cont  2-samecut
   ICHARG =      2    charge: 1-file 2-atom 10-const
   ISPIN  =      2    spin polarized calculation?
   LNONCOLLINEAR =      F non collinear calculations
   LSORBIT =      F    spin-orbit coupling
   INIWAV =      1    electr: 0-lowe 1-rand  2-diag
   LASPH  =      F    aspherical Exc in radial PAW
   METAGGA=      F    non-selfconsistent MetaGGA calc.

 Electronic Relaxation 1
   ENCUT  =  295.4 eV  21.71 Ry    4.66 a.u.  37.08 37.08 37.08*2*pi/ulx,y,z
   ENINI  =  295.4     initial cutoff
   ENAUG  =  587.0 eV  augmentation charge cutoff
   NELM   =     60;   NELMIN=  2; NELMDL= -5     # of ELM steps 
   EDIFF  = 0.1E-04   stopping-criterion for ELM
   LREAL  =      F    real-space projection
   NLSPLINE    = F    spline interpolate recip. space projectors
   LCOMPAT=      F    compatible to vasp.4.4
   GGA_COMPAT  = T    GGA compatible to vasp.4.4-vasp.4.6
   LMAXPAW     = -100 max onsite density
   LMAXMIX     =    2 max onsite mixed and CHGCAR
   VOSKOWN=      0    Vosko Wilk Nusair interpolation
   ROPT   =    0.00000
 Ionic relaxation
   EDIFFG = -.1E+00   stopping-criterion for IOM
   NSW    =    101    number of steps for IOM
   NBLOCK =      1;   KBLOCK =    101    inner block; outer block 
   IBRION =      2    ionic relax: 0-MD 1-quasi-New 2-CG
   NFREE  =      1    steps in history (QN), initial steepest desc. (CG)
   ISIF   =      2    stress and relaxation
   IWAVPR =     11    prediction:  0-non 1-charg 2-wave 3-comb
   ISYM   =      2    0-nonsym 1-usesym 2-fastsym
   LCORR  =      T    Harris-Foulkes like correction to forces

   POTIM  = 0.5000    time-step for ionic-motion
   TEIN   =    0.0    initial temperature
   TEBEG  =    0.0;   TEEND  =   0.0 temperature during run
   SMASS  =  -3.00    Nose mass-parameter (am)
   estimated Nose-frequenzy (Omega)   =  0.10E-29 period in steps =****** mass=  -0.160E-25a.u.
   SCALEE = 1.0000    scale energy and forces
   NPACO  =    256;   APACO  = 16.0  distance and # of slots for P.C.
   PSTRESS=    0.0 pullay stress

  Mass of Ions in am
   POMASS =  63.55
  Ionic Valenz
   ZVAL   =  11.00
  Atomic Wigner-Seitz radii
   RWIGS  =  -1.00
  virtual crystal weights 
   VCA    =   1.00
   NELECT =     429.0000    total number of electrons
   NUPDOWN=      -1.0000    fix difference up-down

 DOS related values:
   EMIN   =  10.00;   EMAX   =-10.00  energy-range for DOS
   EFERMI =   0.00
   ISMEAR =     0;   SIGMA  =   0.00  broadening in eV -4-tet -1-fermi 0-gaus

 Electronic relaxation 2 (details)
   IALGO  =     38    algorithm
   LDIAG  =      T    sub-space diagonalisation (order eigenvalues)
   LSUBROT=      F    optimize rotation matrix (better conditioning)
   TURBO    =      0    0=normal 1=particle mesh
   IRESTART =      0    0=no restart 2=restart with 2 vectors
   NREBOOT  =      0    no. of reboots
   NMIN     =      0    reboot dimension
   EREF     =   0.00    reference energy to select bands
   IMIX   =      4    mixing-type and parameters
     AMIX     =   0.40;   BMIX     =  1.00
     AMIX_MAG =   1.60;   BMIX_MAG =  1.00
     AMIN     =   0.10
     WC   =   100.;   INIMIX=   1;  MIXPRE=   1;  MAXMIX= -45

 Intra band minimization:
   WEIMIN = 0.0010     energy-eigenvalue tresh-hold
   EBREAK =  0.79E-08  absolut break condition
   DEPER  =   0.30     relativ break condition  

   TIME   =   0.40     timestep for ELM

  volume/ion in A,a.u.               =     475.05      3205.82
  Fermi-wavevector in a.u.,A,eV,Ry     =   0.466614  0.881773  2.962383  0.217729
  Thomas-Fermi vector in A             =   1.456575
 
 Write flags
   LWAVE        =      F    write WAVECAR
   LDOWNSAMPLE  =      F    k-point downsampling of WAVECAR
   LCHARG       =      F    write CHGCAR
   LVTOT        =      F    write LOCPOT, total local potential
   LVHAR        =      F    write LOCPOT, Hartree potential only
   LELF         =      F    write electronic localiz. function (ELF)
   LORBIT       =     11    0 simple, 1 ext, 2 COOP (PROOUT), +10 PAW based schemes


 Dipole corrections
   LMONO  =      F    monopole corrections only (constant potential shift)
   LDIPOL =      F    correct potential (dipole corrections)
   IDIPOL =      0    1-x, 2-y, 3-z, 4-all directions 
   EPSILON=  1.0000000 bulk dielectric constant

 Exchange correlation treatment:
   GGA     =    PE    GGA type
   LEXCH   =     8    internal setting for exchange type
   VOSKOWN=      0    Vosko Wilk Nusair interpolation
   LHFCALC =     F    Hartree Fock is set to
   LHFONE  =     F    Hartree Fock one center treatment
   AEXX    =    0.0000 exact exchange contribution

 Linear response parameters
   LEPSILON=     F    determine dielectric tensor
   LRPA    =     F    only Hartree local field effects (RPA)
   LNABLA  =     F    use nabla operator in PAW spheres
   LVEL    =     F    velocity operator in full k-point grid
   LINTERFAST=   F  fast interpolation
   KINTER  =     0    interpolate to denser k-point grid
   CSHIFT  =0.1000    complex shift for real part using Kramers Kronig
   OMEGAMAX=  -1.0    maximum frequency
   DEG_THRESHOLD= 0.2000000E-02 threshold for treating states as degnerate
   RTIME   =   -0.100 relaxation time in fs
  (WPLASMAI=    0.000 imaginary part of plasma frequency in eV, 0.658/RTIME)
   DFIELD  = 0.0000000 0.0000000 0.0000000 field for delta impulse in time
 
 Orbital magnetization related:
   ORBITALMAG=     F  switch on orbital magnetization
   LCHIMAG   =     F  perturbation theory with respect to B field
   DQ        =  0.001000  dq finite difference perturbation B field
   LLRAUG    =     F  two centre corrections for induced B field



--------------------------------------------------------------------------------------------------------


 conjugate gradient relaxation of ions
 charge density and potential will be updated during run
 spin polarized calculation
 Variant of blocked Davidson
 Davidson routine will perform the subspace rotation
 perform sub-space diagonalisation
    after iterative eigenvector-optimisation
 modified Broyden-mixing scheme, WC =      100.0
 initial mixing is a Kerker type mixing with AMIX =  0.4000 and BMIX =      1.0000
 Hartree-type preconditioning will be used
 using additional bands          101
 reciprocal scheme for non local part
 use partial core corrections
 calculate Harris-corrections to forces 
   (improved forces if not selfconsistent)
 use gradient corrections 
 use of overlap-Matrix (Vanderbilt PP)
 Gauss-broadening in eV      SIGMA  =   0.00


--------------------------------------------------------------------------------------------------------


  energy-cutoff  :      295.45
  volume of cell :    18527.09
      direct lattice vectors                 reciprocal lattice vectors
    26.460766000  0.000000000  0.000000000     0.037791801  0.000000000  0.000000000
     0.000000000 26.460766000  0.000000000     0.000000000  0.037791801  0.000000000
     0.000000000  0.000000000 26.460766000     0.000000000  0.000000000  0.037791801

  length of vectors
    26.460766000 26.460766000 26.460766000     0.037791801  0.037791801  0.037791801


 
 k-points in units of 2pi/SCALE and weight: Gamma-point only                        
   0.00000000  0.00000000  0.00000000       1.000
 
 k-points in reciprocal lattice and weights: Gamma-point only                        
   0.00000000  0.00000000  0.00000000       1.000
 
 position of ions in fractional coordinates (direct lattice) 
   0.57284449  0.47813622  0.33879647
   0.59597462  0.56872809  0.36912283
   0.50056961  0.54344517  0.35112901
   0.48938822  0.44943757  0.38010560
   0.38956076  0.50444691  0.38439557
   0.42118917  0.59606235  0.40592638
   0.64044116  0.48349248  0.41246361
   0.52093208  0.60075691  0.42665547
   0.55479767  0.50922558  0.41753913
   0.38139330  0.37817549  0.49079855
   0.57379873  0.41497335  0.42083201
   0.46283511  0.52483213  0.43184749
   0.60770896  0.57102329  0.46508419
   0.48054078  0.37042382  0.45234922
   0.64360662  0.40464437  0.48199067
   0.33256452  0.45633442  0.44967086
   0.41985758  0.44177273  0.44439894
   0.50767605  0.45232471  0.47016781
   0.37662502  0.53634704  0.47254457
   0.52875364  0.54136270  0.49662240
   0.60139953  0.48072344  0.49639657
   0.44995325  0.59571711  0.49950163
   0.45725382  0.40721357  0.53812802
   0.44734905  0.50095027  0.51937803
   0.37090857  0.45992966  0.53533293
   0.52700292  0.47060422  0.55678543
   0.54007232  0.62245667  0.53520474
   0.55732858  0.39132672  0.51637233
   0.60774400  0.44452328  0.58181128
   0.59045615  0.54475826  0.56571024
   0.49369574  0.55351044  0.57741030
   0.39988660  0.55485125  0.57325987
   0.51718000  0.41333848  0.62221480
   0.44308275  0.47394803  0.60689643
   0.45893446  0.63136409  0.59374784
   0.54729220  0.50465946  0.63980867
   0.54552088  0.60229658  0.62998297
   0.46340309  0.55430758  0.65962036
   0.48047800  0.46757555  0.68999679
 
 position of ions in cartesian coordinates  (Angst):
  15.15790400 12.65185063  8.96481411
  15.76994496 15.04898091  9.76727283
  13.24545532 14.37997548  9.29114257
  12.94958717 11.89246237 10.05788534
  10.30807611 13.34805164 10.17140123
  11.14498807 15.77226636 10.74112295
  16.94656367 12.79358138 10.91410307
  13.78426187 15.89648802 11.28963055
  14.68037132 13.47449891 11.04840521
  10.09195887 10.00681315 12.98690558
  15.18315393 10.98051271 11.13553734
  12.24697154 13.88746018 11.42701538
  16.08044459 15.10971366 12.30648392
  12.71547713  9.80169802 11.96950686
  17.03032417 10.70719999 12.75384233
   8.79991194 12.07495831 11.89863540
  11.10975318 11.68964483 11.75913636
  13.43349716 11.96885831 12.44100040
   9.96578652 14.19215352 12.50389129
  13.99122634 14.32487173 13.14100912
  15.91349224 12.72031046 13.13503348
  11.90610766 15.76313105 13.21719575
  12.09928633 10.77518299 14.23927962
  11.83719853 13.25552787 13.74314052
   9.81452488 12.17009111 14.16531939
  13.94490095 12.45254814 14.73296898
  14.29072728 16.47068029 14.16192739
  14.74734114 10.35480477 13.66360739
  16.08137177 11.76242649 15.39517214
  15.62392202 14.41472084 14.96912628
  13.06356745 14.64631023 15.27871883
  10.58130575 14.68178909 15.16889528
  13.68497896 10.93725280 16.46428022
  11.72430897 12.54102792 16.05894442
  12.14375736 16.70637745 15.71102266
  14.48177084 13.35367588 16.92982750
  14.43490035 15.93722887 16.66983195
  12.26200073 14.66740317 17.45405999
  12.71381593 12.37240722 18.25784360
 


--------------------------------------------------------------------------------------------------------


 use parallel FFT for orbitals z direction half grid
 k-point  1 :   0.0000 0.0000 0.0000  plane waves:  106732

 maximum and minimum number of plane-waves per node :      9711     9694

 maximum number of plane-waves:    106732
 maximum index in each direction: 
   IXMAX=   37   IYMAX=   37   IZMAX=   37
   IXMIN=  -37   IYMIN=  -37   IZMIN=    0


 parallel 3D FFT for wavefunctions:
    minimum data exchange during FFTs selected (reduces bandwidth)
 parallel 3D FFT for charge:
    minimum data exchange during FFTs selected (reduces bandwidth)


 total amount of memory used by VASP MPI-rank0   107834. kBytes
=======================================================================

   base      :      30000. kBytes
   nonl-proj :       7458. kBytes
   fftplans  :      12768. kBytes
   grid      :      32904. kBytes
   one-center:         62. kBytes
   wavefun   :      24642. kBytes
 
     INWAV:  cpu time    0.0000: real time    0.0004
 Broyden mixing: mesh for mixing (old mesh)
   NGX = 75   NGY = 75   NGZ = 75
  (NGX  =224   NGY  =224   NGZ  =224)
  gives a total of 421875 points

 initial charge density was supplied:
 charge density of overlapping atoms calculated
 number of electron     429.0000000 magnetization     117.0000000
 keeping initial charge density in first step


--------------------------------------------------------------------------------------------------------


 Maximum index for augmentation-charges          198 (set IRDMAX)


--------------------------------------------------------------------------------------------------------


 First call to EWALD:  gamma=   0.067
 Maximum number of real-space cells 3x 3x 3
 Maximum number of reciprocal cells 3x 3x 3

    FEWALD:  cpu time    0.0040: real time    0.0016


--------------------------------------- Iteration      1(   1)  ---------------------------------------


    POTLOK:  cpu time    0.5680: real time    0.5920
    SETDIJ:  cpu time    0.0080: real time    0.0097
     EDDAV:  cpu time   14.6440: real time   14.6529
       DOS:  cpu time    0.0040: real time    0.0005
    --------------------------------------------
      LOOP:  cpu time   15.2240: real time   15.2552

 eigenvalue-minimisations  :  1280
 total energy-change (2. order) : 0.2834171E+04  (-0.8503354E+04)
 number of electron     429.0000000 magnetization     117.0000000
 augmentation part      429.0000000 magnetization     117.0000000

 Free energy of the ion-electron system (eV)
  ---------------------------------------------------
  alpha Z        PSCENC =        60.03910377
  Ewald energy   TEWEN  =    162588.66679842
  -Hartree energ DENC   =   -211971.04172006
  -exchange      EXHF   =         0.00000000
  -V(xc)+E(xc)   XCENC  =      1800.96603408
  PAW double counting   =     47861.47001231   -51982.93919741
  entropy T*S    EENTRO =        -0.00000000
  eigenvalues    EBANDS =       230.52238082
  atomic energy  EATOM  =     54246.48780166
  Solvation  Ediel_sol  =         0.00000000
  ---------------------------------------------------
  free energy    TOTEN  =      2834.17121358 eV

  energy without entropy =     2834.17121358  energy(sigma->0) =     2834.17121358


--------------------------------------------------------------------------------------------------------




--------------------------------------- Iteration      1(   2)  ---------------------------------------


     EDDAV:  cpu time   15.0000: real time   15.0108
       DOS:  cpu time    0.0000: real time    0.0004
    --------------------------------------------
      LOOP:  cpu time   15.0000: real time   15.0111

 eigenvalue-minimisations  :  1320
 total energy-change (2. order) :-0.2588925E+04  (-0.2296976E+04)
 number of electron     429.0000000 magnetization     117.0000000
 augmentation part      429.0000000 magnetization     117.0000000

 Free energy of the ion-electron system (eV)
  ---------------------------------------------------
  alpha Z        PSCENC =        60.03910377
  Ewald energy   TEWEN  =    162588.66679842
  -Hartree energ DENC   =   -211971.04172006
  -exchange      EXHF   =         0.00000000
  -V(xc)+E(xc)   XCENC  =      1800.96603408
  PAW double counting   =     47861.47001231   -51982.93919741
  entropy T*S    EENTRO =         0.00000000
  eigenvalues    EBANDS =     -2358.40229160
  atomic energy  EATOM  =     54246.48780166
  Solvation  Ediel_sol  =         0.00000000
  ---------------------------------------------------
  free energy    TOTEN  =       245.24654116 eV

  energy without entropy =      245.24654116  energy(sigma->0) =      245.24654116


--------------------------------------------------------------------------------------------------------




--------------------------------------- Iteration      1(   3)  ---------------------------------------


     EDDAV:  cpu time   16.7320: real time   16.7294
       DOS:  cpu time    0.0000: real time    0.0004
    --------------------------------------------
      LOOP:  cpu time   16.7320: real time   16.7298

 eigenvalue-minimisations  :  1520
 total energy-change (2. order) :-0.3021343E+03  (-0.2853387E+03)
 number of electron     429.0000000 magnetization     117.0000000
 augmentation part      429.0000000 magnetization     117.0000000

 Free energy of the ion-electron system (eV)
  ---------------------------------------------------
  alpha Z        PSCENC =        60.03910377
  Ewald energy   TEWEN  =    162588.66679842
  -Hartree energ DENC   =   -211971.04172006
  -exchange      EXHF   =         0.00000000
  -V(xc)+E(xc)   XCENC  =      1800.96603408
  PAW double counting   =     47861.47001231   -51982.93919741
  entropy T*S    EENTRO =         0.00000000
  eigenvalues    EBANDS =     -2660.53659327
  atomic energy  EATOM  =     54246.48780166
  Solvation  Ediel_sol  =         0.00000000
  ---------------------------------------------------
  free energy    TOTEN  =       -56.88776051 eV

  energy without entropy =      -56.88776051  energy(sigma->0) =      -56.88776051


--------------------------------------------------------------------------------------------------------




--------------------------------------- Iteration      1(   4)  ---------------------------------------


     EDDAV:  cpu time   17.4240: real time   17.4370
       DOS:  cpu time    0.0000: real time    0.0003
    --------------------------------------------
      LOOP:  cpu time   17.4240: real time   17.4374

 eigenvalue-minimisations  :  1600
 total energy-change (2. order) :-0.2251035E+02  (-0.2112431E+02)
 number of electron     429.0000000 magnetization     117.0000000
 augmentation part      429.0000000 magnetization     117.0000000

 Free energy of the ion-electron system (eV)
  ---------------------------------------------------
  alpha Z        PSCENC =        60.03910377
  Ewald energy   TEWEN  =    162588.66679842
  -Hartree energ DENC   =   -211971.04172006
  -exchange      EXHF   =         0.00000000
  -V(xc)+E(xc)   XCENC  =      1800.96603408
  PAW double counting   =     47861.47001231   -51982.93919741
  entropy T*S    EENTRO =         0.00000000
  eigenvalues    EBANDS =     -2683.04694690
  atomic energy  EATOM  =     54246.48780166
  Solvation  Ediel_sol  =         0.00000000
  ---------------------------------------------------
  free energy    TOTEN  =       -79.39811414 eV

  energy without entropy =      -79.39811414  energy(sigma->0) =      -79.39811414


--------------------------------------------------------------------------------------------------------




--------------------------------------- Iteration      1(   5)  ---------------------------------------


     EDDAV:  cpu time   17.8360: real time   17.8539
       DOS:  cpu time    0.0000: real time    0.0006
    CHARGE:  cpu time    0.4480: real time    0.4461
    MIXING:  cpu time    0.0120: real time    0.0149
    --------------------------------------------
      LOOP:  cpu time   18.2960: real time   18.3155

 eigenvalue-minimisations  :  1648
 total energy-change (2. order) :-0.7657844E+00  (-0.7630586E+00)
 number of electron     429.0000078 magnetization     109.1432858
 augmentation part      253.3853474 magnetization     103.6168288

 Broyden mixing:
  rms(total) = 0.11091E+02    rms(broyden)= 0.11090E+02
  rms(prec ) = 0.11182E+02
  weight for this iteration     100.00

 Free energy of the ion-electron system (eV)
  ---------------------------------------------------
  alpha Z        PSCENC =        60.03910377
  Ewald energy   TEWEN  =    162588.66679842
  -Hartree energ DENC   =   -211971.04172006
  -exchange      EXHF   =         0.00000000
  -V(xc)+E(xc)   XCENC  =      1800.96603408
  PAW double counting   =     47861.47001231   -51982.93919741
  entropy T*S    EENTRO =        -0.00000000
  eigenvalues    EBANDS =     -2683.81273125
  atomic energy  EATOM  =     54246.48780166
  Solvation  Ediel_sol  =         0.00000000
  ---------------------------------------------------
  free energy    TOTEN  =       -80.16389849 eV

  energy without entropy =      -80.16389849  energy(sigma->0) =      -80.16389849


--------------------------------------------------------------------------------------------------------




--------------------------------------- Iteration      1(   6)  ---------------------------------------


    POTLOK:  cpu time    0.5520: real time    0.5689
    SETDIJ:  cpu time    0.0120: real time    0.0097
     EDDAV:  cpu time   15.2880: real time   15.2877
       DOS:  cpu time    0.0000: real time    0.0008
    CHARGE:  cpu time    0.4440: real time    0.4439
    MIXING:  cpu time    0.0160: real time    0.0155
    --------------------------------------------
      LOOP:  cpu time   16.3120: real time   16.3265

 eigenvalue-minimisations  :  1352
 total energy-change (2. order) : 0.2467327E+03  (-0.1490284E+03)
 number of electron     429.0000085 magnetization     103.1544622
 augmentation part      294.4412607 magnetization      71.0570010

 Broyden mixing:
  rms(total) = 0.54193E+01    rms(broyden)= 0.54164E+01
  rms(prec ) = 0.55622E+01
  weight for this iteration     100.00

 eigenvalues of (default mixing * dielectric matrix)
  average eigenvalue GAMMA=   0.9460
  0.9460

 Free energy of the ion-electron system (eV)
  ---------------------------------------------------
  alpha Z        PSCENC =        60.03910377
  Ewald energy   TEWEN  =    162588.66679842
  -Hartree energ DENC   =   -210883.84572845
  -exchange      EXHF   =         0.00000000
  -V(xc)+E(xc)   XCENC  =      1929.77784341
  PAW double counting   =     48041.89101781   -51958.77675739
  entropy T*S    EENTRO =         0.00000000
  eigenvalues    EBANDS =     -3857.67126189
  atomic energy  EATOM  =     54246.48780166
  Solvation  Ediel_sol  =         0.00000000
  ---------------------------------------------------
  free energy    TOTEN  =       166.56881734 eV

  energy without entropy =      166.56881734  energy(sigma->0) =      166.56881734


--------------------------------------------------------------------------------------------------------




--------------------------------------- Iteration      1(   7)  ---------------------------------------


    POTLOK:  cpu time    0.5520: real time    0.5632
    SETDIJ:  cpu time    0.0080: real time    0.0095
     EDDAV:  cpu time   16.4840: real time   16.4848
       DOS:  cpu time    0.0000: real time    0.0007
    CHARGE:  cpu time    0.4480: real time    0.4463
    MIXING:  cpu time    0.0160: real time    0.0161
    --------------------------------------------
      LOOP:  cpu time   17.5080: real time   17.5206

 eigenvalue-minimisations  :  1492
 total energy-change (2. order) : 0.1313173E+02  (-0.5732354E+02)
 number of electron     429.0000086 magnetization      95.8400284
 augmentation part      278.6336703 magnetization      62.5889756

 Broyden mixing:
  rms(total) = 0.29312E+01    rms(broyden)= 0.29302E+01
  rms(prec ) = 0.29628E+01
  weight for this iteration     100.00

 eigenvalues of (default mixing * dielectric matrix)
  average eigenvalue GAMMA=   0.8930
  1.0682  0.7178

 Free energy of the ion-electron system (eV)
  ---------------------------------------------------
  alpha Z        PSCENC =        60.03910377
  Ewald energy   TEWEN  =    162588.66679842
  -Hartree energ DENC   =   -211817.06494601
  -exchange      EXHF   =         0.00000000
  -V(xc)+E(xc)   XCENC  =      1956.88929254
  PAW double counting   =     49534.88022207   -53776.19629977
  entropy T*S    EENTRO =         0.00000000
  eigenvalues    EBANDS =     -2614.00142887
  atomic energy  EATOM  =     54246.48780166
  Solvation  Ediel_sol  =         0.00000000
  ---------------------------------------------------
  free energy    TOTEN  =       179.70054381 eV

  energy without entropy =      179.70054381  energy(sigma->0) =      179.70054381


--------------------------------------------------------------------------------------------------------




--------------------------------------- Iteration      1(   8)  ---------------------------------------


    POTLOK:  cpu time    0.5600: real time    0.5653
    SETDIJ:  cpu time    0.0120: real time    0.0096
     EDDAV:  cpu time   18.3200: real time   18.3218
       DOS:  cpu time    0.0000: real time    0.0008
    CHARGE:  cpu time    0.4440: real time    0.4423
    MIXING:  cpu time    0.0160: real time    0.0168
    --------------------------------------------
      LOOP:  cpu time   19.3520: real time   19.3567

 eigenvalue-minimisations  :  1704
 total energy-change (2. order) : 0.1845223E+02  (-0.1063821E+02)
 number of electron     429.0000071 magnetization      91.5337249
 augmentation part      273.4176408 magnetization      54.6897985

 Broyden mixing:
  rms(total) = 0.26971E+01    rms(broyden)= 0.26962E+01
  rms(prec ) = 0.27710E+01
  weight for this iteration     100.00

 eigenvalues of (default mixing * dielectric matrix)
  average eigenvalue GAMMA=   0.7925
  1.0958  0.7470  0.5348

 Free energy of the ion-electron system (eV)
  ---------------------------------------------------
  alpha Z        PSCENC =        60.03910377
  Ewald energy   TEWEN  =    162588.66679842
  -Hartree energ DENC   =   -212051.67696761
  -exchange      EXHF   =         0.00000000
  -V(xc)+E(xc)   XCENC  =      1975.18288381
  PAW double counting   =     50405.98540795   -54686.84150574
  entropy T*S    EENTRO =        -0.00000000
  eigenvalues    EBANDS =     -2339.69075028
  atomic energy  EATOM  =     54246.48780166
  Solvation  Ediel_sol  =         0.00000000
  ---------------------------------------------------
  free energy    TOTEN  =       198.15277197 eV

  energy without entropy =      198.15277197  energy(sigma->0) =      198.15277197


--------------------------------------------------------------------------------------------------------




--------------------------------------- Iteration      1(   9)  ---------------------------------------


    POTLOK:  cpu time    0.5520: real time    0.5630
    SETDIJ:  cpu time    0.0080: real time    0.0097
     EDDAV:  cpu time   16.8800: real time   16.8775
       DOS:  cpu time    0.0000: real time    0.0008
    CHARGE:  cpu time    0.4440: real time    0.4458
    MIXING:  cpu time    0.0200: real time    0.0175
    --------------------------------------------
      LOOP:  cpu time   17.9040: real time   17.9143

 eigenvalue-minimisations  :  1536
 total energy-change (2. order) :-0.1352616E+02  (-0.3434656E+01)
 number of electron     429.0000083 magnetization      79.7463222
 augmentation part      275.2784936 magnetization      46.5017789

 Broyden mixing:
  rms(total) = 0.19724E+01    rms(broyden)= 0.19718E+01
  rms(prec ) = 0.19912E+01
  weight for this iteration     100.00

 eigenvalues of (default mixing * dielectric matrix)
  average eigenvalue GAMMA=   0.9432
  1.5967  0.9049  0.8477  0.4233

 Free energy of the ion-electron system (eV)
  ---------------------------------------------------
  alpha Z        PSCENC =        60.03910377
  Ewald energy   TEWEN  =    162588.66679842
  -Hartree energ DENC   =   -211946.83651404
  -exchange      EXHF   =         0.00000000
  -V(xc)+E(xc)   XCENC  =      1961.02985833
  PAW double counting   =     50567.26693849   -54823.88117326
  entropy T*S    EENTRO =         0.00000000
  eigenvalues    EBANDS =     -2468.14620207
  atomic energy  EATOM  =     54246.48780166
  Solvation  Ediel_sol  =         0.00000000
  ---------------------------------------------------
  free energy    TOTEN  =       184.62661129 eV

  energy without entropy =      184.62661129  energy(sigma->0) =      184.62661129


--------------------------------------------------------------------------------------------------------




--------------------------------------- Iteration      1(  10)  ---------------------------------------


    POTLOK:  cpu time    0.5520: real time    0.5979
    SETDIJ:  cpu time    0.0120: real time    0.0096
     EDDAV:  cpu time   21.5440: real time   21.5451
       DOS:  cpu time    0.0000: real time    0.0008
    CHARGE:  cpu time    0.4480: real time    0.4456
    MIXING:  cpu time    0.0160: real time    0.0186
    --------------------------------------------
      LOOP:  cpu time   22.5720: real time   22.6176

 eigenvalue-minimisations  :  2080
 total energy-change (2. order) :-0.6299065E+02  (-0.3082067E+01)
 number of electron     429.0000077 magnetization      69.1121779
 augmentation part      277.0339413 magnetization      39.4169388

 Broyden mixing:
  rms(total) = 0.15839E+01    rms(broyden)= 0.15836E+01
  rms(prec ) = 0.16055E+01
  weight for this iteration     100.00

 eigenvalues of (default mixing * dielectric matrix)
  average eigenvalue GAMMA=   1.0734
  2.5085  1.1796  0.7048  0.5435  0.4306

 Free energy of the ion-electron system (eV)
  ---------------------------------------------------
  alpha Z        PSCENC =        60.03910377
  Ewald energy   TEWEN  =    162588.66679842
  -Hartree energ DENC   =   -211926.70074115
  -exchange      EXHF   =         0.00000000
  -V(xc)+E(xc)   XCENC  =      1908.45467940
  PAW double counting   =     50958.37916565   -55172.58314543
  entropy T*S    EENTRO =         0.00000000
  eigenvalues    EBANDS =     -2541.10770188
  atomic energy  EATOM  =     54246.48780166
  Solvation  Ediel_sol  =         0.00000000
  ---------------------------------------------------
  free energy    TOTEN  =       121.63596044 eV

  energy without entropy =      121.63596044  energy(sigma->0) =      121.63596044


--------------------------------------------------------------------------------------------------------




--------------------------------------- Iteration      1(  11)  ---------------------------------------


    POTLOK:  cpu time    0.5680: real time    0.5684
    SETDIJ:  cpu time    0.0080: real time    0.0095
     EDDAV:  cpu time   17.4960: real time   17.4975
       DOS:  cpu time    0.0000: real time    0.0009
    CHARGE:  cpu time    0.4440: real time    0.4429
    MIXING:  cpu time    0.0200: real time    0.0194
    --------------------------------------------
      LOOP:  cpu time   18.5360: real time   18.5386

 eigenvalue-minimisations  :  1608
 total energy-change (2. order) :-0.4257227E+02  (-0.3115797E+01)
 number of electron     429.0000084 magnetization      62.3565796
 augmentation part      277.8186522 magnetization      36.6637466

 Broyden mixing:
  rms(total) = 0.12229E+01    rms(broyden)= 0.12225E+01
  rms(prec ) = 0.12384E+01
  weight for this iteration     100.00

 eigenvalues of (default mixing * dielectric matrix)
  average eigenvalue GAMMA=   1.0716
  2.8673  1.2843  0.6494  0.6494  0.5731  0.4060

 Free energy of the ion-electron system (eV)
  ---------------------------------------------------
  alpha Z        PSCENC =        60.03910377
  Ewald energy   TEWEN  =    162588.66679842
  -Hartree energ DENC   =   -211927.38850934
  -exchange      EXHF   =         0.00000000
  -V(xc)+E(xc)   XCENC  =      1876.24156227
  PAW double counting   =     51133.78832194   -55324.28944403
  entropy T*S    EENTRO =         0.00000000
  eigenvalues    EBANDS =     -2574.48194662
  atomic energy  EATOM  =     54246.48780166
  Solvation  Ediel_sol  =         0.00000000
  ---------------------------------------------------
  free energy    TOTEN  =        79.06368807 eV

  energy without entropy =       79.06368807  energy(sigma->0) =       79.06368807


--------------------------------------------------------------------------------------------------------




--------------------------------------- Iteration      1(  12)  ---------------------------------------


    POTLOK:  cpu time    0.5600: real time    0.5636
    SETDIJ:  cpu time    0.0080: real time    0.0095
     EDDAV:  cpu time   16.5320: real time   16.5300
       DOS:  cpu time    0.0000: real time    0.0007
    CHARGE:  cpu time    0.4440: real time    0.4440
    MIXING:  cpu time    0.0200: real time    0.0204
    --------------------------------------------
      LOOP:  cpu time   17.5640: real time   17.5682

 eigenvalue-minimisations  :  1496
 total energy-change (2. order) :-0.2395914E+02  (-0.1900706E+01)
 number of electron     429.0000079 magnetization      51.0235422
 augmentation part      276.6037212 magnetization      27.2656194

 Broyden mixing:
  rms(total) = 0.92743E+00    rms(broyden)= 0.92731E+00
  rms(prec ) = 0.93726E+00
  weight for this iteration     100.00

 eigenvalues of (default mixing * dielectric matrix)
  average eigenvalue GAMMA=   1.2443
  3.8184  1.6946  0.8389  0.8389  0.6432  0.4381  0.4381

 Free energy of the ion-electron system (eV)
  ---------------------------------------------------
  alpha Z        PSCENC =        60.03910377
  Ewald energy   TEWEN  =    162588.66679842
  -Hartree energ DENC   =   -211976.41253237
  -exchange      EXHF   =         0.00000000
  -V(xc)+E(xc)   XCENC  =      1860.93406142
  PAW double counting   =     51101.91849723   -55299.87119148
  entropy T*S    EENTRO =         0.00000000
  eigenvalues    EBANDS =     -2526.65799117
  atomic energy  EATOM  =     54246.48780166
  Solvation  Ediel_sol  =         0.00000000
  ---------------------------------------------------
  free energy    TOTEN  =        55.10454748 eV

  energy without entropy =       55.10454748  energy(sigma->0) =       55.10454748


--------------------------------------------------------------------------------------------------------




--------------------------------------- Iteration      1(  13)  ---------------------------------------


    POTLOK:  cpu time    0.5520: real time    0.5625
    SETDIJ:  cpu time    0.0120: real time    0.0096
     EDDAV:  cpu time   16.4000: real time   16.4014
       DOS:  cpu time    0.0000: real time    0.0008
    CHARGE:  cpu time    0.4440: real time    0.4440
    MIXING:  cpu time    0.0240: real time    0.0218
    --------------------------------------------
      LOOP:  cpu time   17.4320: real time   17.4401

 eigenvalue-minimisations  :  1480
 total energy-change (2. order) :-0.5210125E+02  (-0.4037597E+01)
 number of electron     429.0000080 magnetization      41.8443118
 augmentation part      274.4871399 magnetization      23.8208061

 Broyden mixing:
  rms(total) = 0.84121E+00    rms(broyden)= 0.84055E+00
  rms(prec ) = 0.85971E+00
  weight for this iteration     100.00

 eigenvalues of (default mixing * dielectric matrix)
  average eigenvalue GAMMA=   1.2884
  4.7729  1.8238  1.0077  0.6919  0.6919  0.4835  0.4612  0.3743

 Free energy of the ion-electron system (eV)
  ---------------------------------------------------
  alpha Z        PSCENC =        60.03910377
  Ewald energy   TEWEN  =    162588.66679842
  -Hartree energ DENC   =   -212022.32323054
  -exchange      EXHF   =         0.00000000
  -V(xc)+E(xc)   XCENC  =      1824.38581735
  PAW double counting   =     50939.56948576   -55145.40834432
  entropy T*S    EENTRO =         0.00000000
  eigenvalues    EBANDS =     -2488.41413172
  atomic energy  EATOM  =     54246.48780166
  Solvation  Ediel_sol  =         0.00000000
  ---------------------------------------------------
  free energy    TOTEN  =         3.00330037 eV

  energy without entropy =        3.00330037  energy(sigma->0) =        3.00330037


--------------------------------------------------------------------------------------------------------




--------------------------------------- Iteration      1(  14)  ---------------------------------------


    POTLOK:  cpu time    0.5640: real time    0.5702
    SETDIJ:  cpu time    0.0080: real time    0.0097
     EDDAV:  cpu time   18.6640: real time   18.6634
       DOS:  cpu time    0.0000: real time    0.0007
    CHARGE:  cpu time    0.4440: real time    0.4419
    MIXING:  cpu time    0.0200: real time    0.0228
    --------------------------------------------
      LOOP:  cpu time   19.7000: real time   19.7088

 eigenvalue-minimisations  :  1744
 total energy-change (2. order) :-0.3409601E+02  (-0.3052727E+01)
 number of electron     429.0000077 magnetization      32.5708996
 augmentation part      273.8988694 magnetization      21.0423628

 Broyden mixing:
  rms(total) = 0.72561E+00    rms(broyden)= 0.72456E+00
  rms(prec ) = 0.73964E+00
  weight for this iteration     100.00

 eigenvalues of (default mixing * dielectric matrix)
  average eigenvalue GAMMA=   1.3596
  5.8799  1.9677  1.2033  0.6741  0.6741  0.5489  0.5143  0.4144  0.3596

 Free energy of the ion-electron system (eV)
  ---------------------------------------------------
  alpha Z        PSCENC =        60.03910377
  Ewald energy   TEWEN  =    162588.66679842
  -Hartree energ DENC   =   -212037.43077355
  -exchange      EXHF   =         0.00000000
  -V(xc)+E(xc)   XCENC  =      1800.53404952
  PAW double counting   =     50868.78347508   -55072.72915717
  entropy T*S    EENTRO =         0.00000000
  eigenvalues    EBANDS =     -2485.44401032
  atomic energy  EATOM  =     54246.48780166
  Solvation  Ediel_sol  =         0.00000000
  ---------------------------------------------------
  free energy    TOTEN  =       -31.09271259 eV

  energy without entropy =      -31.09271259  energy(sigma->0) =      -31.09271259


--------------------------------------------------------------------------------------------------------




--------------------------------------- Iteration      1(  15)  ---------------------------------------


    POTLOK:  cpu time    0.5560: real time    0.5611
    SETDIJ:  cpu time    0.0080: real time    0.0095
     EDDAV:  cpu time   17.9760: real time   17.9771
       DOS:  cpu time    0.0000: real time    0.0008
    CHARGE:  cpu time    0.4480: real time    0.4457
    MIXING:  cpu time    0.0240: real time    0.0246
    --------------------------------------------
      LOOP:  cpu time   19.0120: real time   19.0189

 eigenvalue-minimisations  :  1664
 total energy-change (2. order) :-0.2271765E+02  (-0.2325919E+01)
 number of electron     429.0000075 magnetization      27.8927085
 augmentation part      273.6150043 magnetization      19.7767079

 Broyden mixing:
  rms(total) = 0.58557E+00    rms(broyden)= 0.58506E+00
  rms(prec ) = 0.60067E+00
  weight for this iteration     100.00

 eigenvalues of (default mixing * dielectric matrix)
  average eigenvalue GAMMA=   1.3756
  6.5704  2.1920  1.1071  0.7045  0.7045  0.6069  0.6069  0.4886  0.4042  0.3706

 Free energy of the ion-electron system (eV)
  ---------------------------------------------------
  alpha Z        PSCENC =        60.03910377
  Ewald energy   TEWEN  =    162588.66679842
  -Hartree energ DENC   =   -212067.02661354
  -exchange      EXHF   =         0.00000000
  -V(xc)+E(xc)   XCENC  =      1784.33139419
  PAW double counting   =     50851.44774932   -55050.84461754
  entropy T*S    EENTRO =         0.00000000
  eigenvalues    EBANDS =     -2466.91197724
  atomic energy  EATOM  =     54246.48780166
  Solvation  Ediel_sol  =         0.00000000
  ---------------------------------------------------
  free energy    TOTEN  =       -53.81036096 eV

  energy without entropy =      -53.81036096  energy(sigma->0) =      -53.81036096


--------------------------------------------------------------------------------------------------------




--------------------------------------- Iteration      1(  16)  ---------------------------------------


    POTLOK:  cpu time    0.5640: real time    0.5652
    SETDIJ:  cpu time    0.0080: real time    0.0096
     EDDAV:  cpu time   18.5400: real time   18.5416
       DOS:  cpu time    0.0000: real time    0.0008
    CHARGE:  cpu time    0.4440: real time    0.4434
    MIXING:  cpu time    0.0280: real time    0.0256
    --------------------------------------------
      LOOP:  cpu time   19.5840: real time   19.5862

 eigenvalue-minimisations  :  1728
 total energy-change (2. order) :-0.1383086E+02  (-0.1203702E+01)
 number of electron     429.0000078 magnetization      24.2861141
 augmentation part      274.0402156 magnetization      19.0422093

 Broyden mixing:
  rms(total) = 0.47902E+00    rms(broyden)= 0.47846E+00
  rms(prec ) = 0.49347E+00
  weight for this iteration     100.00

 eigenvalues of (default mixing * dielectric matrix)
  average eigenvalue GAMMA=   1.3870
  7.1445  2.3821  0.8720  0.8720  0.9738  0.6931  0.6931  0.4485  0.4485  0.3845
  0.3450

 Free energy of the ion-electron system (eV)
  ---------------------------------------------------
  alpha Z        PSCENC =        60.03910377
  Ewald energy   TEWEN  =    162588.66679842
  -Hartree energ DENC   =   -212045.87974106
  -exchange      EXHF   =         0.00000000
  -V(xc)+E(xc)   XCENC  =      1773.43309540
  PAW double counting   =     50781.03159665   -54970.96457527
  entropy T*S    EENTRO =         0.00000000
  eigenvalues    EBANDS =     -2500.45529575
  atomic energy  EATOM  =     54246.48780166
  Solvation  Ediel_sol  =         0.00000000
  ---------------------------------------------------
  free energy    TOTEN  =       -67.64121619 eV

  energy without entropy =      -67.64121619  energy(sigma->0) =      -67.64121619


--------------------------------------------------------------------------------------------------------




--------------------------------------- Iteration      1(  17)  ---------------------------------------


    POTLOK:  cpu time    0.5520: real time    0.5633
    SETDIJ:  cpu time    0.0080: real time    0.0096
     EDDAV:  cpu time   18.8200: real time   18.8186
       DOS:  cpu time    0.0000: real time    0.0007
    CHARGE:  cpu time    0.4400: real time    0.4416
    MIXING:  cpu time    0.0280: real time    0.0273
    --------------------------------------------
      LOOP:  cpu time   19.8480: real time   19.8612

 eigenvalue-minimisations  :  1760
 total energy-change (2. order) :-0.1074134E+02  (-0.6679931E+00)
 number of electron     429.0000079 magnetization      19.7594465
 augmentation part      274.6153879 magnetization      17.1898994

 Broyden mixing:
  rms(total) = 0.38342E+00    rms(broyden)= 0.38285E+00
  rms(prec ) = 0.39164E+00
  weight for this iteration     100.00

 eigenvalues of (default mixing * dielectric matrix)
  average eigenvalue GAMMA=   1.4117
  7.8499  2.4704  1.0439  1.0439  1.0114  0.6952  0.6952  0.5001  0.5001  0.3960
  0.3960  0.3383

 Free energy of the ion-electron system (eV)
  ---------------------------------------------------
  alpha Z        PSCENC =        60.03910377
  Ewald energy   TEWEN  =    162588.66679842
  -Hartree energ DENC   =   -212013.82020917
  -exchange      EXHF   =         0.00000000
  -V(xc)+E(xc)   XCENC  =      1764.39367987
  PAW double counting   =     50688.62225065   -54871.13861399
  entropy T*S    EENTRO =         0.00000000
  eigenvalues    EBANDS =     -2541.63336780
  atomic energy  EATOM  =     54246.48780166
  Solvation  Ediel_sol  =         0.00000000
  ---------------------------------------------------
  free energy    TOTEN  =       -78.38255660 eV

  energy without entropy =      -78.38255660  energy(sigma->0) =      -78.38255660


--------------------------------------------------------------------------------------------------------




--------------------------------------- Iteration      1(  18)  ---------------------------------------


    POTLOK:  cpu time    0.5520: real time    0.5673
    SETDIJ:  cpu time    0.0120: real time    0.0096
     EDDAV:  cpu time   18.0560: real time   18.0572
       DOS:  cpu time    0.0000: real time    0.0007
    CHARGE:  cpu time    0.4400: real time    0.4403
    MIXING:  cpu time    0.0280: real time    0.0293
    --------------------------------------------
      LOOP:  cpu time   19.0920: real time   19.1045

 eigenvalue-minimisations  :  1672
 total energy-change (2. order) :-0.7761746E+01  (-0.3524695E+00)
 number of electron     429.0000078 magnetization      15.1372635
 augmentation part      274.7316091 magnetization      13.3287966

 Broyden mixing:
  rms(total) = 0.30341E+00    rms(broyden)= 0.30333E+00
  rms(prec ) = 0.31037E+00
  weight for this iteration     100.00

 eigenvalues of (default mixing * dielectric matrix)
  average eigenvalue GAMMA=   1.4746
  8.8684  2.7025  1.1346  1.1346  0.9003  0.9003  0.6933  0.6933  0.5139  0.5139
  0.4111  0.3747  0.3282

 Free energy of the ion-electron system (eV)
  ---------------------------------------------------
  alpha Z        PSCENC =        60.03910377
  Ewald energy   TEWEN  =    162588.66679842
  -Hartree energ DENC   =   -212006.29550815
  -exchange      EXHF   =         0.00000000
  -V(xc)+E(xc)   XCENC  =      1757.90218283
  PAW double counting   =     50667.76000409   -54849.75286445
  entropy T*S    EENTRO =         0.00000000
  eigenvalues    EBANDS =     -2550.95182118
  atomic energy  EATOM  =     54246.48780166
  Solvation  Ediel_sol  =         0.00000000
  ---------------------------------------------------
  free energy    TOTEN  =       -86.14430302 eV

  energy without entropy =      -86.14430302  energy(sigma->0) =      -86.14430302


--------------------------------------------------------------------------------------------------------




--------------------------------------- Iteration      1(  19)  ---------------------------------------


    POTLOK:  cpu time    0.5520: real time    0.5688
    SETDIJ:  cpu time    0.0120: real time    0.0097
     EDDAV:  cpu time   18.8200: real time   18.8194
       DOS:  cpu time    0.0000: real time    0.0007
    CHARGE:  cpu time    0.4400: real time    0.4417
    MIXING:  cpu time    0.0320: real time    0.0316
    --------------------------------------------
      LOOP:  cpu time   19.8520: real time   19.8719

 eigenvalue-minimisations  :  1760
 total energy-change (2. order) :-0.8708321E+01  (-0.2432804E+00)
 number of electron     429.0000078 magnetization      12.5441559
 augmentation part      274.9694884 magnetization      11.3568534

 Broyden mixing:
  rms(total) = 0.23984E+00    rms(broyden)= 0.23979E+00
  rms(prec ) = 0.24479E+00
  weight for this iteration     100.00

 eigenvalues of (default mixing * dielectric matrix)
  average eigenvalue GAMMA=   1.5021
  9.4918  2.9471  1.2784  1.2784  0.9762  0.9762  0.7310  0.7310  0.5131  0.5131
  0.4607  0.4355  0.3707  0.3261

 Free energy of the ion-electron system (eV)
  ---------------------------------------------------
  alpha Z        PSCENC =        60.03910377
  Ewald energy   TEWEN  =    162588.66679842
  -Hartree energ DENC   =   -211978.37098302
  -exchange      EXHF   =         0.00000000
  -V(xc)+E(xc)   XCENC  =      1749.65797376
  PAW double counting   =     50618.24828568   -54799.12968915
  entropy T*S    EENTRO =         0.00000000
  eigenvalues    EBANDS =     -2580.45191507
  atomic energy  EATOM  =     54246.48780166
  Solvation  Ediel_sol  =         0.00000000
  ---------------------------------------------------
  free energy    TOTEN  =       -94.85262395 eV

  energy without entropy =      -94.85262395  energy(sigma->0) =      -94.85262395


--------------------------------------------------------------------------------------------------------




--------------------------------------- Iteration      1(  20)  ---------------------------------------


    POTLOK:  cpu time    0.5520: real time    0.5665
    SETDIJ:  cpu time    0.0120: real time    0.0095
     EDDAV:  cpu time   17.0960: real time   17.0966
       DOS:  cpu time    0.0000: real time    0.0007
    CHARGE:  cpu time    0.4440: real time    0.4431
    MIXING:  cpu time    0.0320: real time    0.0344
    --------------------------------------------
      LOOP:  cpu time   18.1360: real time   18.1509

 eigenvalue-minimisations  :  1560
 total energy-change (2. order) :-0.6331528E+01  (-0.1215134E+00)
 number of electron     429.0000078 magnetization      10.1478935
 augmentation part      275.0803655 magnetization       9.1870399

 Broyden mixing:
  rms(total) = 0.18752E+00    rms(broyden)= 0.18750E+00
  rms(prec ) = 0.19277E+00
  weight for this iteration     100.00

 eigenvalues of (default mixing * dielectric matrix)
  average eigenvalue GAMMA=   1.5376
  9.9377  3.3300  1.6461  1.0988  1.0988  1.0817  0.7466  0.7466  0.7802  0.5270
  0.5270  0.4439  0.3979  0.3748  0.3267

 Free energy of the ion-electron system (eV)
  ---------------------------------------------------
  alpha Z        PSCENC =        60.03910377
  Ewald energy   TEWEN  =    162588.66679842
  -Hartree energ DENC   =   -211953.00915638
  -exchange      EXHF   =         0.00000000
  -V(xc)+E(xc)   XCENC  =      1743.53951727
  PAW double counting   =     50584.39950776   -54765.79171581
  entropy T*S    EENTRO =         0.00000000
  eigenvalues    EBANDS =     -2605.51600836
  atomic energy  EATOM  =     54246.48780166
  Solvation  Ediel_sol  =         0.00000000
  ---------------------------------------------------
  free energy    TOTEN  =      -101.18415167 eV

  energy without entropy =     -101.18415167  energy(sigma->0) =     -101.18415167


--------------------------------------------------------------------------------------------------------




--------------------------------------- Iteration      1(  21)  ---------------------------------------


    POTLOK:  cpu time    0.5680: real time    0.5698
    SETDIJ:  cpu time    0.0080: real time    0.0097
     EDDAV:  cpu time   16.6080: real time   16.6065
       DOS:  cpu time    0.0000: real time    0.0005
    CHARGE:  cpu time    0.4440: real time    0.4450
    MIXING:  cpu time    0.0360: real time    0.0375
    --------------------------------------------
      LOOP:  cpu time   17.6640: real time   17.6689

 eigenvalue-minimisations  :  1504
 total energy-change (2. order) :-0.4698853E+01  (-0.5957979E-01)
 number of electron     429.0000077 magnetization       7.8819438
 augmentation part      275.0162800 magnetization       6.9496649

 Broyden mixing:
  rms(total) = 0.13772E+00    rms(broyden)= 0.13770E+00
  rms(prec ) = 0.14258E+00
  weight for this iteration     100.00

 eigenvalues of (default mixing * dielectric matrix)
  average eigenvalue GAMMA=   1.5688
 10.4398  3.8410  1.8034  1.1227  1.1227  1.0099  1.0099  0.7857  0.7857  0.5626
  0.5626  0.5255  0.4263  0.4064  0.3703  0.3270

 Free energy of the ion-electron system (eV)
  ---------------------------------------------------
  alpha Z        PSCENC =        60.03910377
  Ewald energy   TEWEN  =    162588.66679842
  -Hartree energ DENC   =   -211931.37363752
  -exchange      EXHF   =         0.00000000
  -V(xc)+E(xc)   XCENC  =      1739.05407477
  PAW double counting   =     50586.15318728   -54770.63894733
  entropy T*S    EENTRO =         0.00000000
  eigenvalues    EBANDS =     -2624.27138569
  atomic energy  EATOM  =     54246.48780166
  Solvation  Ediel_sol  =         0.00000000
  ---------------------------------------------------
  free energy    TOTEN  =      -105.88300464 eV

  energy without entropy =     -105.88300464  energy(sigma->0) =     -105.88300464


--------------------------------------------------------------------------------------------------------




--------------------------------------- Iteration      1(  22)  ---------------------------------------


    POTLOK:  cpu time    0.5560: real time    0.5787
    SETDIJ:  cpu time    0.0080: real time    0.0095
     EDDAV:  cpu time   17.5840: real time   17.5824
       DOS:  cpu time    0.0000: real time    0.0008
    CHARGE:  cpu time    0.4440: real time    0.4438
    MIXING:  cpu time    0.0400: real time    0.0422
    --------------------------------------------
      LOOP:  cpu time   18.6320: real time   18.6573

 eigenvalue-minimisations  :  1616
 total energy-change (2. order) :-0.3183220E+01  (-0.2994941E-01)
 number of electron     429.0000078 magnetization       5.9005376
 augmentation part      274.9615592 magnetization       5.0296027

 Broyden mixing:
  rms(total) = 0.93389E-01    rms(broyden)= 0.93373E-01
  rms(prec ) = 0.96613E-01
  weight for this iteration     100.00

 eigenvalues of (default mixing * dielectric matrix)
  average eigenvalue GAMMA=   1.6226
 10.8327  4.5702  2.1989  1.2654  1.2654  1.0324  1.0324  0.8033  0.7457  0.7457
  0.5379  0.5379  0.4914  0.4159  0.4112  0.3714  0.3270

 Free energy of the ion-electron system (eV)
  ---------------------------------------------------
  alpha Z        PSCENC =        60.03910377
  Ewald energy   TEWEN  =    162588.66679842
  -Hartree energ DENC   =   -211907.89295745
  -exchange      EXHF   =         0.00000000
  -V(xc)+E(xc)   XCENC  =      1735.94004334
  PAW double counting   =     50576.98871648   -54763.64164635
  entropy T*S    EENTRO =        -0.00000000
  eigenvalues    EBANDS =     -2645.65408440
  atomic energy  EATOM  =     54246.48780166
  Solvation  Ediel_sol  =         0.00000000
  ---------------------------------------------------
  free energy    TOTEN  =      -109.06622453 eV

  energy without entropy =     -109.06622453  energy(sigma->0) =     -109.06622453


--------------------------------------------------------------------------------------------------------




--------------------------------------- Iteration      1(  23)  ---------------------------------------


    POTLOK:  cpu time    0.5600: real time    0.5655
    SETDIJ:  cpu time    0.0120: real time    0.0095
     EDDAV:  cpu time   18.1800: real time   18.1810
       DOS:  cpu time    0.0000: real time    0.0009
    CHARGE:  cpu time    0.4480: real time    0.4460
    MIXING:  cpu time    0.0440: real time    0.0473
    --------------------------------------------
      LOOP:  cpu time   19.2440: real time   19.2502

 eigenvalue-minimisations  :  1688
 total energy-change (2. order) :-0.2549028E+01  (-0.1427285E-01)
 number of electron     429.0000078 magnetization       4.2170395
 augmentation part      274.8876182 magnetization       3.3581125

 Broyden mixing:
  rms(total) = 0.61652E-01    rms(broyden)= 0.61636E-01
  rms(prec ) = 0.63893E-01
  weight for this iteration     100.00

 eigenvalues of (default mixing * dielectric matrix)
  average eigenvalue GAMMA=   1.6891
 11.4760  5.3287  2.5683  1.4078  1.1453  1.1453  1.0356  1.0356  0.7805  0.7805
  0.6477  0.5275  0.5275  0.4690  0.4312  0.3980  0.3729  0.3269

 Free energy of the ion-electron system (eV)
  ---------------------------------------------------
  alpha Z        PSCENC =        60.03910377
  Ewald energy   TEWEN  =    162588.66679842
  -Hartree energ DENC   =   -211878.89143756
  -exchange      EXHF   =         0.00000000
  -V(xc)+E(xc)   XCENC  =      1733.37777808
  PAW double counting   =     50572.96317927   -54761.56004906
  entropy T*S    EENTRO =         0.00000000
  eigenvalues    EBANDS =     -2672.69842673
  atomic energy  EATOM  =     54246.48780166
  Solvation  Ediel_sol  =         0.00000000
  ---------------------------------------------------
  free energy    TOTEN  =      -111.61525217 eV

  energy without entropy =     -111.61525217  energy(sigma->0) =     -111.61525217


--------------------------------------------------------------------------------------------------------




--------------------------------------- Iteration      1(  24)  ---------------------------------------


    POTLOK:  cpu time    0.5600: real time    0.5636
    SETDIJ:  cpu time    0.0120: real time    0.0097
     EDDAV:  cpu time   17.4200: real time   17.4215
       DOS:  cpu time    0.0000: real time    0.0008
    CHARGE:  cpu time    0.4440: real time    0.4436
    MIXING:  cpu time    0.0560: real time    0.0551
    --------------------------------------------
      LOOP:  cpu time   18.4920: real time   18.4943

 eigenvalue-minimisations  :  1600
 total energy-change (2. order) :-0.1298839E+01  (-0.4456370E-02)
 number of electron     429.0000079 magnetization       3.3473640
 augmentation part      274.9167655 magnetization       2.5151610

 Broyden mixing:
  rms(total) = 0.47359E-01    rms(broyden)= 0.47349E-01
  rms(prec ) = 0.49474E-01
  weight for this iteration     100.00

 eigenvalues of (default mixing * dielectric matrix)
  average eigenvalue GAMMA=   1.6919
 11.9202  5.4680  2.7863  1.4525  1.4525  0.9997  0.9997  1.0961  0.7778  0.7778
  0.7546  0.6419  0.5272  0.5272  0.3269  0.3723  0.4339  0.4339  0.3987

 Free energy of the ion-electron system (eV)
  ---------------------------------------------------
  alpha Z        PSCENC =        60.03910377
  Ewald energy   TEWEN  =    162588.66679842
  -Hartree energ DENC   =   -211857.68185830
  -exchange      EXHF   =         0.00000000
  -V(xc)+E(xc)   XCENC  =      1731.88105416
  PAW double counting   =     50577.54126755   -54765.90585917
  entropy T*S    EENTRO =         0.00000000
  eigenvalues    EBANDS =     -2693.94239916
  atomic energy  EATOM  =     54246.48780166
  Solvation  Ediel_sol  =         0.00000000
  ---------------------------------------------------
  free energy    TOTEN  =      -112.91409107 eV

  energy without entropy =     -112.91409107  energy(sigma->0) =     -112.91409107


--------------------------------------------------------------------------------------------------------




--------------------------------------- Iteration      1(  25)  ---------------------------------------


    POTLOK:  cpu time    0.5560: real time    0.5616
    SETDIJ:  cpu time    0.0120: real time    0.0095
     EDDAV:  cpu time   16.5200: real time   16.5241
       DOS:  cpu time    0.0040: real time    0.0006
    CHARGE:  cpu time    0.4440: real time    0.4467
    MIXING:  cpu time    0.0640: real time    0.0637
    --------------------------------------------
      LOOP:  cpu time   17.6000: real time   17.6061

 eigenvalue-minimisations  :  1496
 total energy-change (2. order) :-0.3900358E+00  (-0.1795810E-02)
 number of electron     429.0000079 magnetization       2.7388496
 augmentation part      274.9360603 magnetization       1.9269152

 Broyden mixing:
  rms(total) = 0.31810E-01    rms(broyden)= 0.31805E-01
  rms(prec ) = 0.33297E-01
  weight for this iteration     100.00

 eigenvalues of (default mixing * dielectric matrix)
  average eigenvalue GAMMA=   1.7084
 12.0691  5.8447  3.1628  1.6080  1.6080  1.0356  1.0356  1.0180  1.0180  0.7808
  0.7808  0.6970  0.5334  0.5334  0.3268  0.4612  0.4612  0.3725  0.4006  0.4196

 Free energy of the ion-electron system (eV)
  ---------------------------------------------------
  alpha Z        PSCENC =        60.03910377
  Ewald energy   TEWEN  =    162588.66679842
  -Hartree energ DENC   =   -211852.38347126
  -exchange      EXHF   =         0.00000000
  -V(xc)+E(xc)   XCENC  =      1731.38822099
  PAW double counting   =     50585.15390133   -54772.85990643
  entropy T*S    EENTRO =         0.00000000
  eigenvalues    EBANDS =     -2699.79657537
  atomic energy  EATOM  =     54246.48780166
  Solvation  Ediel_sol  =         0.00000000
  ---------------------------------------------------
  free energy    TOTEN  =      -113.30412688 eV

  energy without entropy =     -113.30412688  energy(sigma->0) =     -113.30412688


--------------------------------------------------------------------------------------------------------




--------------------------------------- Iteration      1(  26)  ---------------------------------------


    POTLOK:  cpu time    0.5680: real time    0.5662
    SETDIJ:  cpu time    0.0080: real time    0.0096
     EDDAV:  cpu time   17.5640: real time   17.5646
       DOS:  cpu time    0.0000: real time    0.0007
    CHARGE:  cpu time    0.4440: real time    0.4435
    MIXING:  cpu time    0.0800: real time    0.0776
    --------------------------------------------
      LOOP:  cpu time   18.6640: real time   18.6622

 eigenvalue-minimisations  :  1616
 total energy-change (2. order) :-0.3204418E+00  (-0.1323682E-02)
 number of electron     429.0000078 magnetization       2.5148364
 augmentation part      274.9556086 magnetization       1.6829414

 Broyden mixing:
  rms(total) = 0.23266E-01    rms(broyden)= 0.23262E-01
  rms(prec ) = 0.24521E-01
  weight for this iteration     100.00

 eigenvalues of (default mixing * dielectric matrix)
  average eigenvalue GAMMA=   1.7119
 12.1448  6.3092  3.2331  2.0372  1.3343  1.3343  1.0350  1.0350  0.9357  0.9357
  0.7289  0.7289  0.6714  0.5282  0.5282  0.3269  0.3724  0.4548  0.4548  0.3996
  0.4215

 Free energy of the ion-electron system (eV)
  ---------------------------------------------------
  alpha Z        PSCENC =        60.03910377
  Ewald energy   TEWEN  =    162588.66679842
  -Hartree energ DENC   =   -211847.63612542
  -exchange      EXHF   =         0.00000000
  -V(xc)+E(xc)   XCENC  =      1731.01587660
  PAW double counting   =     50595.31253542   -54782.33766504
  entropy T*S    EENTRO =         0.00000000
  eigenvalues    EBANDS =     -2705.17289405
  atomic energy  EATOM  =     54246.48780166
  Solvation  Ediel_sol  =         0.00000000
  ---------------------------------------------------
  free energy    TOTEN  =      -113.62456864 eV

  energy without entropy =     -113.62456864  energy(sigma->0) =     -113.62456864


--------------------------------------------------------------------------------------------------------




--------------------------------------- Iteration      1(  27)  ---------------------------------------


    POTLOK:  cpu time    0.5600: real time    0.5623
    SETDIJ:  cpu time    0.0120: real time    0.0096
     EDDAV:  cpu time   17.5040: real time   17.5081
       DOS:  cpu time    0.0040: real time    0.0007
    CHARGE:  cpu time    0.4400: real time    0.4419
    MIXING:  cpu time    0.0840: real time    0.0853
    --------------------------------------------
      LOOP:  cpu time   18.6040: real time   18.6079

 eigenvalue-minimisations  :  1608
 total energy-change (2. order) :-0.1624033E+00  (-0.3471720E-03)
 number of electron     429.0000079 magnetization       2.2140523
 augmentation part      274.9586829 magnetization       1.3751299

 Broyden mixing:
  rms(total) = 0.17049E-01    rms(broyden)= 0.17048E-01
  rms(prec ) = 0.18051E-01
  weight for this iteration     100.00

 eigenvalues of (default mixing * dielectric matrix)
  average eigenvalue GAMMA=   1.7228
 12.1874  6.7085  3.3082  2.3524  1.4036  1.4036  1.0168  1.0168  1.0585  1.0585
  0.7601  0.7601  0.7193  0.6621  0.5267  0.5267  0.3269  0.3723  0.4656  0.3995
  0.4344  0.4344

 Free energy of the ion-electron system (eV)
  ---------------------------------------------------
  alpha Z        PSCENC =        60.03910377
  Ewald energy   TEWEN  =    162588.66679842
  -Hartree energ DENC   =   -211843.28142599
  -exchange      EXHF   =         0.00000000
  -V(xc)+E(xc)   XCENC  =      1730.86093137
  PAW double counting   =     50593.92530373   -54780.74828293
  entropy T*S    EENTRO =         0.00000000
  eigenvalues    EBANDS =     -2709.73720200
  atomic energy  EATOM  =     54246.48780166
  Solvation  Ediel_sol  =         0.00000000
  ---------------------------------------------------
  free energy    TOTEN  =      -113.78697197 eV

  energy without entropy =     -113.78697197  energy(sigma->0) =     -113.78697197


--------------------------------------------------------------------------------------------------------




--------------------------------------- Iteration      1(  28)  ---------------------------------------


    POTLOK:  cpu time    0.5680: real time    0.5686
    SETDIJ:  cpu time    0.0120: real time    0.0094
     EDDAV:  cpu time   18.1320: real time   18.1327
       DOS:  cpu time    0.0000: real time    0.0007
    CHARGE:  cpu time    0.4400: real time    0.4413
    MIXING:  cpu time    0.0920: real time    0.0926
    --------------------------------------------
      LOOP:  cpu time   19.2480: real time   19.2453

 eigenvalue-minimisations  :  1680
 total energy-change (2. order) :-0.1665575E+00  (-0.2461588E-03)
 number of electron     429.0000079 magnetization       1.8558671
 augmentation part      274.9427731 magnetization       1.0121075

 Broyden mixing:
  rms(total) = 0.13243E-01    rms(broyden)= 0.13241E-01
  rms(prec ) = 0.13820E-01
  weight for this iteration     100.00

 eigenvalues of (default mixing * dielectric matrix)
  average eigenvalue GAMMA=   1.7271
 12.2857  6.9453  3.4854  2.5932  1.6006  1.3476  1.3476  1.0272  1.0272  0.9538
  0.9538  0.7419  0.7419  0.6611  0.5549  0.5231  0.5231  0.3269  0.3723  0.4471
  0.4471  0.4013  0.4152

 Free energy of the ion-electron system (eV)
  ---------------------------------------------------
  alpha Z        PSCENC =        60.03910377
  Ewald energy   TEWEN  =    162588.66679842
  -Hartree energ DENC   =   -211839.49872227
  -exchange      EXHF   =         0.00000000
  -V(xc)+E(xc)   XCENC  =      1730.73997462
  PAW double counting   =     50595.08467008   -54782.03262199
  entropy T*S    EENTRO =         0.00000000
  eigenvalues    EBANDS =     -2713.44053376
  atomic energy  EATOM  =     54246.48780166
  Solvation  Ediel_sol  =         0.00000000
  ---------------------------------------------------
  free energy    TOTEN  =      -113.95352946 eV

  energy without entropy =     -113.95352946  energy(sigma->0) =     -113.95352946


--------------------------------------------------------------------------------------------------------




--------------------------------------- Iteration      1(  29)  ---------------------------------------


    POTLOK:  cpu time    0.5680: real time    0.5697
    SETDIJ:  cpu time    0.0080: real time    0.0096
     EDDAV:  cpu time   16.1680: real time   16.1697
       DOS:  cpu time    0.0040: real time    0.0007
    CHARGE:  cpu time    0.4400: real time    0.4425
    MIXING:  cpu time    0.1000: real time    0.0999
    --------------------------------------------
      LOOP:  cpu time   17.2840: real time   17.2921

 eigenvalue-minimisations  :  1452
 total energy-change (2. order) :-0.2014250E+00  (-0.2631662E-03)
 number of electron     429.0000079 magnetization       1.6562024
 augmentation part      274.9178029 magnetization       0.8151988

 Broyden mixing:
  rms(total) = 0.10162E-01    rms(broyden)= 0.10160E-01
  rms(prec ) = 0.10636E-01
  weight for this iteration     100.00

 eigenvalues of (default mixing * dielectric matrix)
  average eigenvalue GAMMA=   1.7279
 12.3680  7.0855  3.8906  2.7610  1.6892  1.2559  1.2559  1.1157  1.1157  1.0221
  1.0221  0.7662  0.7662  0.7050  0.7050  0.5276  0.5276  0.3269  0.3723  0.4738
  0.4494  0.4494  0.4003  0.4179

 Free energy of the ion-electron system (eV)
  ---------------------------------------------------
  alpha Z        PSCENC =        60.03910377
  Ewald energy   TEWEN  =    162588.66679842
  -Hartree energ DENC   =   -211836.27383271
  -exchange      EXHF   =         0.00000000
[...]
   19        0.427   0.256   9.223   9.906
   20        0.488   0.490   9.193  10.171
   21        0.449   0.366   9.194  10.009
   22        0.417   0.267   9.218   9.902
   23        0.421   0.273   9.213   9.908
   24        0.490   0.471   9.200  10.161
   25        0.434   0.232   9.233   9.898
   26        0.484   0.465   9.200  10.149
   27        0.427   0.205   9.250   9.883
   28        0.425   0.238   9.230   9.894
   29        0.426   0.179   9.263   9.868
   30        0.425   0.265   9.220   9.910
   31        0.494   0.477   9.206  10.177
   32        0.421   0.214   9.244   9.879
   33        0.438   0.186   9.259   9.883
   34        0.430   0.292   9.207   9.929
   35        0.448   0.168   9.262   9.877
   36        0.432   0.264   9.220   9.916
   37        0.454   0.177   9.257   9.888
   38        0.421   0.206   9.257   9.884
   39        0.478   0.140   9.276   9.894
--------------------------------------------------
tot         17.363  10.274 360.204 387.841
 


 magnetization (x)
 
# of ion       s       p       d       tot
------------------------------------------
    1        0.023   0.010   0.001   0.034
    2        0.001   0.008   0.004   0.013
    3        0.006   0.009   0.002   0.017
    4        0.002   0.003   0.007   0.012
    5       -0.000   0.000   0.005   0.005
    6        0.001   0.002   0.003   0.006
    7        0.003   0.000   0.007   0.010
    8        0.015   0.001   0.002   0.017
    9        0.002   0.000   0.019   0.021
   10       -0.000   0.001   0.003   0.004
   11        0.011   0.000   0.007   0.019
   12       -0.000   0.002   0.007   0.009
   13       -0.000   0.004   0.001   0.005
   14       -0.000   0.004   0.003   0.007
   15        0.001   0.003   0.003   0.006
   16        0.002   0.000   0.001   0.003
   17       -0.000   0.002   0.009   0.011
   18       -0.000   0.004   0.001   0.005
   19        0.004   0.001   0.002   0.006
   20        0.002   0.002   0.013   0.016
   21        0.002   0.004   0.005   0.011
   22        0.001   0.001   0.007   0.009
   23        0.001   0.004   0.003   0.007
   24        0.001   0.005   0.005   0.011
   25        0.001   0.000   0.006   0.007
   26        0.002   0.009  -0.002   0.009
   27        0.002   0.001   0.006   0.009
   28        0.006  -0.000   0.017   0.023
   29       -0.000   0.008   0.008   0.016
   30        0.002   0.007   0.012   0.020
   31        0.001   0.003   0.009   0.013
   32        0.001   0.001   0.009   0.010
   33        0.005   0.003   0.017   0.025
   34        0.002   0.005   0.014   0.021
   35        0.001   0.000   0.003   0.003
   36        0.008   0.005   0.016   0.029
   37       -0.000   0.000   0.009   0.009
   38        0.006   0.011   0.009   0.025
   39        0.050   0.008   0.005   0.063
--------------------------------------------------
tot          0.160   0.130   0.256   0.547
 
    CHARGE:  cpu time    0.4440: real time    0.4432
    FORLOC:  cpu time    0.0480: real time    0.0474
    FORNL :  cpu time    7.2440: real time    7.2447
    STRESS:  cpu time   12.9520: real time   12.9505
    FORCOR:  cpu time    0.5480: real time    0.5485
    FORHAR:  cpu time    0.1000: real time    0.1008
    MIXING:  cpu time    0.2120: real time    0.2142
    OFIELD:  cpu time    0.0040: real time    0.0001

  FORCE on cell =-STRESS in cart. coord.  units (eV):
  Direction    XX          YY          ZZ          XY          YZ          ZX
  --------------------------------------------------------------------------------------
  Alpha Z    60.03910    60.03910    60.03910
  Ewald   53303.46345 43826.49372 65458.63136  -368.19729  1466.54940 -2402.35372
  Hartree 69832.47404 60660.71578 81335.33271  -304.88981  1485.38947 -2232.50466
  E(xc)   -2505.01714 -2505.25064 -2504.39570    -0.08026    -0.12526    -0.19055
  Local  ************************************   670.80159 -2956.67407  4630.62334
  n-local  -912.85815  -916.04964  -912.77542     0.16363     0.51680     0.04759
  augment  3672.79588  3668.88303  3665.55563     0.99438     2.08476     2.10547
  Kinetic  3520.07585  3515.96486  3512.36839     0.97926     2.24212     2.01925
  Fock        0.00000     0.00000     0.00000     0.00000     0.00000     0.00000
  -------------------------------------------------------------------------------------
  Total     -10.71873   -11.34787   -10.96113    -0.22849    -0.01679    -0.25329
  in kB      -0.92693    -0.98134    -0.94789    -0.01976    -0.00145    -0.02190
  external pressure =       -0.95 kB  Pullay stress =        0.00 kB


 VOLUME and BASIS-vectors are now :
 -----------------------------------------------------------------------------
  energy-cutoff  :      295.45
  volume of cell :    18527.09
      direct lattice vectors                 reciprocal lattice vectors
    26.460766000  0.000000000  0.000000000     0.037791801  0.000000000  0.000000000
     0.000000000 26.460766000  0.000000000     0.000000000  0.037791801  0.000000000
     0.000000000  0.000000000 26.460766000     0.000000000  0.000000000  0.037791801

  length of vectors
    26.460766000 26.460766000 26.460766000     0.037791801  0.037791801  0.037791801


 FORCES acting on ions
    electron-ion (+dipol)            ewald-force                    non-local-force                 convergence-correction
 -----------------------------------------------------------------------------------------------
   -.811E+03 0.494E+03 0.210E+04   0.808E+03 -.491E+03 -.209E+04   0.297E+01 -.359E+01 -.700E+01   0.316E-04 -.532E-04 -.171E-04
   -.126E+04 -.119E+04 0.152E+04   0.125E+04 0.119E+04 -.152E+04   0.421E+01 0.448E+01 -.524E+01   0.616E-04 0.531E-04 -.378E-04
   0.256E+03 -.752E+03 0.218E+04   -.254E+03 0.749E+03 -.217E+04   -.250E+01 0.267E+01 -.583E+01   -.697E-04 -.550E-04 -.201E-03
   0.373E+03 0.109E+04 0.198E+04   -.371E+03 -.109E+04 -.198E+04   -.144E+01 -.283E+01 -.445E+01   -.157E-03 -.768E-04 0.112E-04
   0.149E+04 -.603E+02 0.177E+04   -.149E+04 0.601E+02 -.176E+04   -.255E+01 0.205E+00 -.727E+01   -.195E-03 -.120E-03 0.449E-04
   0.113E+04 -.165E+04 0.122E+04   -.113E+04 0.165E+04 -.122E+04   -.337E+01 0.686E+01 -.424E+01   -.317E-03 0.438E-05 -.113E-04
   -.209E+04 0.181E+03 0.956E+03   0.208E+04 -.181E+03 -.954E+03   0.671E+01 0.448E+00 -.252E+01   0.105E-03 -.917E-04 0.454E-04
   -.275E+03 -.205E+04 0.978E+03   0.275E+03 0.205E+04 -.977E+03   0.172E-01 0.533E+01 -.569E+00   0.127E-03 0.247E-03 0.140E-04
   -.816E+03 -.178E+03 0.113E+04   0.815E+03 0.177E+03 -.113E+04   0.516E+00 0.956E+00 -.159E+01   0.563E-04 -.197E-03 0.148E-03
   0.137E+04 0.180E+04 -.112E+02   -.137E+04 -.179E+04 0.106E+02   -.439E+01 -.819E+01 0.615E+00   -.328E-04 0.130E-03 0.148E-04
   -.973E+03 0.165E+04 0.119E+04   0.971E+03 -.165E+04 -.119E+04   0.132E+01 -.311E+01 -.235E+01   0.445E-04 0.276E-04 0.565E-04
   0.671E+03 -.508E+03 0.109E+04   -.671E+03 0.506E+03 -.109E+04   -.334E+00 0.144E+01 -.363E+00   -.189E-03 -.260E-03 0.110E-03
   -.187E+04 -.139E+04 0.232E+03   0.186E+04 0.139E+04 -.233E+03   0.499E+01 0.393E+01 0.592E+00   0.976E-04 0.261E-04 0.204E-03
   0.220E+03 0.224E+04 0.725E+03   -.220E+03 -.224E+04 -.722E+03   0.108E-01 -.766E+01 -.289E+01   -.139E-04 -.594E-04 -.568E-04
   -.185E+04 0.130E+04 0.547E+02   0.184E+04 -.130E+04 -.550E+02   0.771E+01 -.489E+01 0.314E+00   -.305E-05 -.951E-04 -.310E-04
   0.210E+04 0.493E+03 0.595E+03   -.209E+04 -.492E+03 -.593E+03   -.813E+01 -.160E+01 -.225E+01   0.110E-03 0.150E-03 -.657E-04
   0.117E+04 0.110E+04 0.987E+03   -.117E+04 -.110E+04 -.989E+03   -.144E+01 -.102E+00 0.167E+01   -.163E-03 0.348E-04 -.121E-03
   -.115E+03 0.990E+03 0.431E+03   0.115E+03 -.989E+03 -.431E+03   -.298E+00 -.583E+00 0.103E-01   0.323E-04 0.110E-03 -.232E-04
   0.204E+04 -.882E+03 0.243E+03   -.203E+04 0.880E+03 -.242E+03   -.322E+01 0.198E+01 -.382E+00   -.139E-03 -.960E-05 -.386E-04
   -.549E+03 -.888E+03 0.486E+02   0.549E+03 0.887E+03 -.480E+02   0.178E+00 0.487E+00 -.623E+00   0.673E-04 -.160E-03 0.188E-03
   -.186E+04 0.202E+03 -.159E+03   0.186E+04 -.201E+03 0.160E+03   0.229E-01 -.178E+01 -.605E+00   0.285E-05 0.437E-04 -.196E-04
   0.939E+03 -.195E+04 0.104E+03   -.938E+03 0.195E+04 -.104E+03   -.872E+00 0.295E+01 0.552E-01   -.189E-03 0.848E-04 0.225E-03
   0.670E+03 0.186E+04 -.801E+03   -.670E+03 -.186E+04 0.800E+03   -.266E+00 -.260E+01 0.846E+00   -.144E-03 0.910E-05 0.887E-04
   0.992E+03 0.175E+01 -.327E+03   -.992E+03 -.187E+01 0.327E+03   -.343E-01 0.121E+00 0.530E+00   0.534E-04 -.319E-04 0.135E-04
   0.200E+04 0.578E+03 -.855E+03   -.200E+04 -.577E+03 0.852E+03   -.390E+01 -.124E+01 0.270E+01   -.515E-04 0.225E-04 0.221E-05
   -.502E+03 0.662E+03 -.900E+03   0.502E+03 -.661E+03 0.900E+03   0.568E+00 -.439E+00 0.688E+00   -.137E-04 0.155E-03 0.278E-04
   -.776E+03 -.219E+04 -.221E+03   0.774E+03 0.218E+04 0.222E+03   0.178E+01 0.629E+01 -.107E+01   0.906E-04 0.610E-04 0.182E-03
   -.790E+03 0.209E+04 -.401E+03   0.790E+03 -.208E+04 0.398E+03   0.811E+00 -.476E+01 0.257E+01   0.121E-03 -.802E-04 0.370E-04
   -.179E+04 0.875E+03 -.124E+04   0.178E+04 -.872E+03 0.123E+04   0.604E+01 -.282E+01 0.361E+01   0.116E-03 -.141E-05 0.770E-04
   -.189E+04 -.817E+03 -.949E+03   0.189E+04 0.816E+03 0.947E+03   0.351E+01 0.136E+01 0.149E+01   -.820E-04 0.918E-04 0.433E-04
   0.122E+03 -.884E+03 -.104E+04   -.123E+03 0.882E+03 0.104E+04   0.235E+00 0.205E+01 0.111E+01   0.579E-04 0.272E-04 0.109E-03
   0.188E+04 -.915E+03 -.102E+04   -.188E+04 0.912E+03 0.102E+04   -.524E+01 0.228E+01 0.234E+01   -.907E-04 0.450E-04 0.853E-04
   -.259E+03 0.167E+04 -.154E+04   0.258E+03 -.167E+04 0.153E+04   0.111E+01 -.683E+01 0.260E+01   0.140E-05 -.416E-04 0.605E-04
   0.122E+04 0.665E+03 -.156E+04   -.122E+04 -.665E+03 0.156E+04   -.102E+01 -.673E+00 0.251E+01   -.988E-04 0.315E-06 0.422E-04
   0.726E+03 -.199E+04 -.937E+03   -.723E+03 0.198E+04 0.936E+03   -.277E+01 0.767E+01 0.136E+01   0.562E-04 0.256E-05 0.158E-04
   -.104E+04 0.794E+01 -.194E+04   0.104E+04 -.734E+01 0.194E+04   0.118E+01 -.587E+00 0.342E+01   0.207E-04 0.677E-04 -.572E-04
   -.894E+03 -.147E+04 -.156E+04   0.891E+03 0.146E+04 0.156E+04   0.348E+01 0.452E+01 0.501E+01   -.318E-04 -.151E-05 -.830E-04
   0.706E+03 -.759E+03 -.200E+04   -.703E+03 0.756E+03 0.200E+04   -.301E+01 0.325E+01 0.482E+01   -.390E-04 0.910E-04 -.806E-04
   0.311E+03 0.575E+03 -.207E+04   -.310E+03 -.571E+03 0.206E+04   -.120E+01 -.384E+01 0.854E+01   -.369E-04 0.328E-04 -.148E-03
 -----------------------------------------------------------------------------------------------
   -.152E+01 -.107E+01 0.183E+01   0.159E-11 -.341E-12 0.364E-11   0.139E+01 0.114E+01 -.186E+01   -.803E-03 0.184E-03 0.853E-03
 
 
 POSITION                                       TOTAL-FORCE (eV/Angst)
 -----------------------------------------------------------------------------------
     15.15790     12.65185      8.96481        -0.005881     -0.011892     -0.025041
     15.76994     15.04898      9.76727         0.001360      0.001257     -0.006218
     13.24546     14.37998      9.29114         0.038243      0.007844     -0.023883
     12.94959     11.89246     10.05789         0.026785      0.000037     -0.005005
     10.30808     13.34805     10.17140        -0.044816      0.044214      0.017726
     11.14499     15.77227     10.74112        -0.016106      0.001291      0.010997
     16.94656     12.79358     10.91410         0.019938      0.004306      0.004086
     13.78426     15.89649     11.28963        -0.032510     -0.025686     -0.024593
     14.68037     13.47450     11.04841        -0.015487      0.017223      0.049851
     10.09196     10.00681     12.98691         0.008574     -0.002330      0.005398
     15.18315     10.98051     11.13554         0.011466      0.001882     -0.005290
     12.24697     13.88746     11.42702        -0.005376     -0.010744     -0.028918
     16.08044     15.10971     12.30648        -0.014230     -0.011463     -0.005717
     12.71548      9.80170     11.96951        -0.004948      0.001572      0.032253
     17.03032     10.70720     12.75384         0.000988      0.010041     -0.010248
      8.79991     12.07496     11.89864         0.005386     -0.011625      0.014421
     11.10975     11.68964     11.75914         0.005195     -0.006609     -0.027914
     13.43350     11.96886     12.44100         0.000223     -0.007843     -0.015074
      9.96579     14.19215     12.50389         0.005501      0.000958      0.015188
     13.99123     14.32487     13.14101         0.036777      0.022209     -0.054241
     15.91349     12.72031     13.13503         0.012055      0.005630      0.014440
     11.90611     15.76313     13.21720         0.007364      0.013123     -0.005285
     12.09929     10.77518     14.23928         0.011859      0.011296      0.015512
     11.83720     13.25553     13.74314        -0.033958     -0.002872     -0.001347
      9.81452     12.17009     14.16532         0.026691      0.010204     -0.003749
     13.94490     12.45255     14.73297         0.027173     -0.043394      0.032350
     14.29073     16.47068     14.16193        -0.000666      0.008949     -0.001878
     14.74734     10.35480     13.66361         0.019730      0.001290      0.012068
     16.08137     11.76243     15.39517        -0.000016      0.010432      0.001044
     15.62392     14.41472     14.96913        -0.003627      0.000422      0.006982
     13.06357     14.64631     15.27872        -0.028260      0.052030      0.049434
     10.58131     14.68179     15.16890        -0.007418      0.001343     -0.004184
     13.68498     10.93725     16.46428        -0.000464     -0.009395     -0.019455
     11.72431     12.54103     16.05894        -0.005166     -0.019328      0.005324
     12.14376     16.70638     15.71102        -0.014421     -0.029445      0.013194
     14.48177     13.35368     16.92983        -0.010059      0.008095      0.001738
     14.43490     15.93723     16.66983        -0.023397     -0.019668     -0.004898
     12.26200     14.66740     17.45406        -0.000842     -0.014556     -0.022276
     12.71382     12.37241     18.25784         0.002340     -0.008799     -0.006791
 -----------------------------------------------------------------------------------
    total drift:                               -0.126675      0.076555     -0.027053


--------------------------------------------------------------------------------------------------------



  FREE ENERGIE OF THE ION-ELECTRON SYSTEM (eV)
  ---------------------------------------------------
  free  energy   TOTEN  =      -114.41815423 eV

  energy  without entropy=     -114.41815423  energy(sigma->0) =     -114.41815423
 


--------------------------------------------------------------------------------------------------------


    POTLOK:  cpu time    0.5600: real time    0.5619


--------------------------------------------------------------------------------------------------------




--------------------------------------------------------------------------------------------------------


  
 reached required accuracy - stopping structural energy minimisation
     LOOP+:  cpu time  823.9760: real time  824.4942
    4ORBIT:  cpu time    0.0000: real time    0.0000
 


 total charge     
 
# of ion       s       p       d       tot
------------------------------------------
    1        0.438   0.176   9.270   9.884
    2        0.443   0.170   9.263   9.876
    3        0.412   0.205   9.260   9.876
    4        0.419   0.246   9.234   9.898
    5        0.435   0.182   9.264   9.881
    6        0.452   0.157   9.265   9.874
    7        0.431   0.183   9.261   9.875
    8        0.418   0.230   9.237   9.885
    9        0.490   0.482   9.202  10.174
   10        0.465   0.151   9.270   9.885
   11        0.422   0.251   9.228   9.900
   12        0.476   0.464   9.189  10.130
   13        0.420   0.216   9.245   9.881
   14        0.432   0.179   9.260   9.871
   15        0.473   0.136   9.267   9.876
   16        0.467   0.157   9.266   9.890
   17        0.459   0.374   9.196  10.029
   18        0.484   0.485   9.199  10.168
   19        0.427   0.256   9.223   9.906
   20        0.488   0.490   9.193  10.171
   21        0.449   0.366   9.194  10.009
   22        0.417   0.267   9.218   9.902
   23        0.421   0.273   9.213   9.908
   24        0.490   0.471   9.200  10.161
   25        0.434   0.232   9.233   9.898
   26        0.484   0.465   9.200  10.149
   27        0.427   0.205   9.250   9.883
   28        0.425   0.238   9.230   9.894
   29        0.426   0.179   9.263   9.868
   30        0.425   0.265   9.220   9.910
   31        0.494   0.477   9.206  10.177
   32        0.421   0.214   9.244   9.879
   33        0.438   0.186   9.259   9.883
   34        0.430   0.292   9.207   9.929
   35        0.448   0.168   9.262   9.877
   36        0.432   0.264   9.220   9.916
   37        0.454   0.177   9.257   9.888
   38        0.421   0.206   9.257   9.884
   39        0.478   0.140   9.276   9.894
--------------------------------------------------
tot         17.363  10.274 360.204 387.841
 


 magnetization (x)
 
# of ion       s       p       d       tot
------------------------------------------
    1        0.023   0.010   0.001   0.034
    2        0.001   0.008   0.004   0.013
    3        0.006   0.009   0.002   0.017
    4        0.002   0.003   0.007   0.012
    5       -0.000   0.000   0.005   0.005
    6        0.001   0.002   0.003   0.006
    7        0.003   0.000   0.007   0.010
    8        0.015   0.001   0.002   0.017
    9        0.002   0.000   0.019   0.021
   10       -0.000   0.001   0.003   0.004
   11        0.011   0.000   0.007   0.019
   12       -0.000   0.002   0.007   0.009
   13       -0.000   0.004   0.001   0.005
   14       -0.000   0.004   0.003   0.007
   15        0.001   0.003   0.003   0.006
   16        0.002   0.000   0.001   0.003
   17       -0.000   0.002   0.009   0.011
   18       -0.000   0.004   0.001   0.005
   19        0.004   0.001   0.002   0.006
   20        0.002   0.002   0.013   0.016
   21        0.002   0.004   0.005   0.011
   22        0.001   0.001   0.007   0.009
   23        0.001   0.004   0.003   0.007
   24        0.001   0.005   0.005   0.011
   25        0.001   0.000   0.006   0.007
   26        0.002   0.009  -0.002   0.009
   27        0.002   0.001   0.006   0.009
   28        0.006  -0.000   0.017   0.023
   29       -0.000   0.008   0.008   0.016
   30        0.002   0.007   0.012   0.020
   31        0.001   0.003   0.009   0.013
   32        0.001   0.001   0.009   0.010
   33        0.005   0.003   0.017   0.025
   34        0.002   0.005   0.014   0.021
   35        0.001   0.000   0.003   0.003
   36        0.008   0.005   0.016   0.029
   37       -0.000   0.000   0.009   0.009
   38        0.006   0.011   0.009   0.025
   39        0.050   0.008   0.005   0.063
--------------------------------------------------
tot          0.160   0.130   0.256   0.547
 

 total amount of memory used by VASP MPI-rank0   107834. kBytes
=======================================================================

   base      :      30000. kBytes
   nonl-proj :       7458. kBytes
   fftplans  :      12768. kBytes
   grid      :      32904. kBytes
   one-center:         62. kBytes
   wavefun   :      24642. kBytes
 
  
  
 General timing and accounting informations for this job:
 ========================================================
  
                  Total CPU time used (sec):      833.952
                            User time (sec):      830.424
                          System time (sec):        3.528
                         Elapsed time (sec):      834.441
  
                   Maximum memory used (kb):       42556.
                   Average memory used (kb):           0.
  
                          Minor page faults:        19470
                          Major page faults:           26
                 Voluntary context switches:          595
