 vasp.5.4.1 05Feb16 (build Apr 11 2020 03:28:46) gamma-only                     
  
 executed on           IFC91_ompi date 2022.05.04  14:55:07
 running on   24 total cores
 distrk:  each k-point on   24 cores,    1 groups
 distr:  one band on NCORES_PER_BAND=   6 cores,    4 groups


--------------------------------------------------------------------------------------------------------


 INCAR:
 POTCAR:    PAW_PBE Cu 22Jun2005                  
 POTCAR:    PAW_PBE Cu 22Jun2005                  
   VRHFIN =Cu: d10 p1                                                           
   LEXCH  = PE                                                                  
   EATOM  =  1390.9808 eV,  102.2342 Ry                                         
                                                                                
   TITEL  = PAW_PBE Cu 22Jun2005                                                
   LULTRA =        F    use ultrasoft PP ?                                      
   IUNSCR =        1    unscreen: 0-lin 1-nonlin 2-no                           
   RPACOR =    2.000    partial core radius                                     
   POMASS =   63.546; ZVAL   =   11.000    mass and valenz                      
   RCORE  =    2.300    outmost cutoff radius                                   
   RWIGS  =    2.200; RWIGS  =    1.164    wigner-seitz radius (au A)           
   ENMAX  =  295.446; ENMIN  =  221.585 eV                                      
   ICORE  =        3    local potential                                         
   LCOR   =        T    correct aug charges                                     
   LPAW   =        T    paw PP                                                  
   EAUG   =  586.980                                                            
   DEXC   =    0.000                                                            
   RMAX   =    2.344    core radius for proj-oper                               
   RAUG   =    1.300    factor for augmentation sphere                          
   RDEP   =    2.302    radius for radial grids                                 
   RDEPT  =    1.771    core radius for aug-charge                              
                                                                                
   Atomic configuration                                                         
    9 entries                                                                   
     n  l   j            E        occ.                                          
     1  0  0.50     -8850.2468   2.0000                                         
     2  0  0.50     -1062.3498   2.0000                                         
     2  1  1.50      -916.8226   6.0000                                         
     3  0  0.50      -114.6929   2.0000                                         
     3  1  1.50       -72.1325   6.0000                                         
     3  2  2.50        -5.0394  10.0000                                         
     4  0  0.50        -4.6097   1.0000                                         
     4  1  0.50        -4.0817   0.0000                                         
     4  3  2.50        -1.3606   0.0000                                         
   Description                                                                  
     l       E           TYP  RCUT    TYP  RCUT                                 
     2     -5.0393973     23  2.200                                             
     2     10.8846608     23  2.200                                             
     0     -4.6097109     23  2.200                                             
     0      8.2520465     23  2.200                                             
     1     -2.7211652     23  2.200                                             
     1     21.7055443     23  2.200                                             
     3      2.7211652     23  2.300                                             
  local pseudopotential read in
  partial core-charges read in
  partial kinetic energy density read in
  atomic valenz-charges read in
  non local Contribution for L=           2  read in
    real space projection operators read in
  non local Contribution for L=           2  read in
    real space projection operators read in
  non local Contribution for L=           0  read in
    real space projection operators read in
  non local Contribution for L=           0  read in
    real space projection operators read in
  non local Contribution for L=           1  read in
    real space projection operators read in
  non local Contribution for L=           1  read in
    real space projection operators read in
    PAW grid and wavefunctions read in
 
   number of l-projection  operators is LMAX  =           6
   number of lm-projection operators is LMMAX =          18
 

 ----------------------------------------------------------------------------- 
|                                                                             |
|  ADVICE TO THIS USER RUNNING 'VASP/VAMP'   (HEAR YOUR MASTER'S VOICE ...):  |
|                                                                             |
|      You have a (more or less) 'large supercell' and for larger cells       |
|      it might be more efficient to use real space projection opertators     |
|      So try LREAL= Auto  in the INCAR   file.                               |
|      Mind: At the moment your POTCAR file does not contain real space       |
|       projectors, and has to be modified,  BUT if you                       |
|      want to do an extremely  accurate calculation you might also keep the  |
|      reciprocal projection scheme          (i.e. LREAL=.FALSE.)             |
|                                                                             |
 ----------------------------------------------------------------------------- 

  PAW_PBE Cu 22Jun2005                  :
 energy of atom  1       EATOM=-1390.9808
 kinetic energy error for atom=    0.0452 (will be added to EATOM!!)
 
 
 POSCAR: Cu-40-1 <s> Cu </s>                     
  positions in direct lattice
  velocities in cartesian coordinates
 exchange correlation table for  LEXCH =        8
   RHO(1)=    0.500       N(1)  =     2000
   RHO(2)=  100.500       N(2)  =     4000
 


--------------------------------------------------------------------------------------------------------


 ion  position               nearest neighbor table
   1  0.498  0.500  0.544-   2 2.29   9 2.40   8 2.50  10 2.50  13 2.50  12 2.51  11 2.51   7 2.52
                             6 2.57   3 2.57   5 2.74   4 2.74
   2  0.497  0.500  0.626-   1 2.29  14 2.54   7 2.63   3 2.64   6 2.64   4 2.76   5 2.76
   3  0.534  0.425  0.583-   4 2.39   7 2.45  15 2.47  12 2.53  16 2.53   1 2.57   2 2.64
   4  0.449  0.425  0.584-  14 2.37   3 2.39  17 2.43   8 2.49  18 2.69   1 2.74   2 2.76  16 2.77

   5  0.449  0.575  0.584-  14 2.37   6 2.39  20 2.43  10 2.49  19 2.69   1 2.74   2 2.76  21 2.77

   6  0.534  0.575  0.583-   5 2.39   7 2.45  22 2.47  11 2.53  21 2.53   1 2.57   2 2.64
   7  0.579  0.500  0.582-   3 2.45   6 2.45  24 2.50  23 2.50   1 2.52  12 2.62  11 2.62   2 2.63

   8  0.476  0.427  0.499-  16 2.36  26 2.42   4 2.49  17 2.49   1 2.50  13 2.50   9 2.51  35 2.51
                            27 2.51  25 2.54  12 2.56
   9  0.425  0.500  0.500-  28 2.35  18 2.38  19 2.38   1 2.40  13 2.49  36 2.51   8 2.51  10 2.51
                            27 2.55  29 2.55  14 2.72
  10  0.476  0.573  0.499-  21 2.36  30 2.42   5 2.49  20 2.49   1 2.50  13 2.50   9 2.51  37 2.51
                            29 2.51  31 2.54  11 2.56
  11  0.563  0.546  0.503-  23 2.40  32 2.43  22 2.44   1 2.51  13 2.52  38 2.52   6 2.53  31 2.53
                            33 2.55  12 2.56  10 2.56   7 2.62
  12  0.563  0.454  0.503-  24 2.40  34 2.43  15 2.44   1 2.51  13 2.52  39 2.52   3 2.53  25 2.53
                            33 2.55  11 2.56   8 2.56   7 2.62
  13  0.502  0.500  0.456-  40 2.43   9 2.49   1 2.50  10 2.50   8 2.50  39 2.50  38 2.50  11 2.52
                            12 2.52  35 2.53  37 2.53  36 2.54
  14  0.412  0.500  0.596-   4 2.37   5 2.37  19 2.48  18 2.48   2 2.54   9 2.72
  15  0.587  0.377  0.533-  12 2.44  34 2.46  25 2.46   3 2.47  16 2.51  24 2.67
  16  0.501  0.356  0.537-   8 2.36  15 2.51   3 2.53  25 2.56  26 2.59  17 2.62   4 2.77
  17  0.410  0.374  0.526-  26 2.42   4 2.43  18 2.45  27 2.46   8 2.49  16 2.62
  18  0.368  0.450  0.538-   9 2.38  17 2.45  14 2.48  27 2.54  28 2.58   4 2.69
  19  0.368  0.550  0.538-   9 2.38  20 2.45  14 2.48  29 2.54  28 2.58   5 2.69
  20  0.410  0.626  0.526-  30 2.42   5 2.43  19 2.45  29 2.46  10 2.49  21 2.62
  21  0.501  0.644  0.537-  10 2.36  22 2.51   6 2.53  31 2.56  30 2.59  20 2.62   5 2.77
  22  0.587  0.623  0.533-  11 2.44  32 2.46  31 2.46   6 2.47  21 2.51  23 2.67
  23  0.641  0.545  0.537-  11 2.40  32 2.49   7 2.50  33 2.50  24 2.52  22 2.67
  24  0.641  0.455  0.537-  12 2.40  34 2.49   7 2.50  33 2.50  23 2.52  15 2.67
  25  0.541  0.379  0.459-  15 2.46  26 2.47  34 2.53  12 2.53   8 2.54  16 2.56  39 2.57  35 2.60

  26  0.456  0.355  0.456-   8 2.42  17 2.42  35 2.46  25 2.47  27 2.57  16 2.59
  27  0.398  0.425  0.456-  17 2.46  28 2.50   8 2.51  18 2.54   9 2.55  36 2.56  26 2.57  35 2.60

  28  0.350  0.500  0.464-   9 2.35  29 2.50  27 2.50  36 2.54  18 2.58  19 2.58
  29  0.398  0.575  0.456-  20 2.46  28 2.50  10 2.51  19 2.54   9 2.55  36 2.56  30 2.57  37 2.60

  30  0.456  0.645  0.456-  10 2.42  20 2.42  37 2.46  31 2.47  29 2.57  21 2.59
  31  0.541  0.621  0.459-  22 2.46  30 2.47  32 2.53  11 2.53  10 2.54  21 2.56  38 2.57  37 2.60

  32  0.625  0.589  0.462-  11 2.43  22 2.46  38 2.48  23 2.49  33 2.51  31 2.53
  33  0.629  0.500  0.461-  23 2.50  24 2.50  32 2.51  34 2.51  11 2.55  12 2.55  39 2.57  38 2.57

  34  0.625  0.411  0.462-  12 2.43  15 2.46  39 2.48  24 2.49  33 2.51  25 2.53
  35  0.478  0.426  0.410-  26 2.46  40 2.47   8 2.51  13 2.53  39 2.58  36 2.58  25 2.60  27 2.60

  36  0.423  0.500  0.411-   9 2.51  40 2.53  13 2.54  28 2.54  29 2.56  27 2.56  37 2.58  35 2.58

  37  0.478  0.574  0.410-  30 2.46  40 2.47  10 2.51  13 2.53  38 2.58  36 2.58  31 2.60  29 2.60

  38  0.565  0.545  0.413-  32 2.48  40 2.49  13 2.50  11 2.52  39 2.55  31 2.57  33 2.57  37 2.58

  39  0.565  0.455  0.413-  34 2.48  40 2.49  13 2.50  12 2.52  38 2.55  25 2.57  33 2.57  35 2.58

  40  0.503  0.500  0.369-  13 2.43  37 2.47  35 2.47  38 2.49  39 2.49  36 2.53
 
  LATTYP: Found a simple cubic cell.
 ALAT       =    28.1156941947
  
  Lattice vectors:
  
 A1 = (  28.1156941947,   0.0000000000,   0.0000000000)
 A2 = (   0.0000000000,  28.1156941947,   0.0000000000)
 A3 = (   0.0000000000,   0.0000000000,  28.1156941947)


Analysis of symmetry for initial positions (statically):
=====================================================================
 Subroutine PRICEL returns:
 Original cell was already a primitive cell.
 

 Routine SETGRP: Setting up the symmetry group for a 
 simple cubic supercell.


 Subroutine GETGRP returns: Found  1 space group operations
 (whereof  1 operations were pure point group operations)
 out of a pool of 48 trial point group operations.


The static configuration has the point symmetry C_1 .


Analysis of symmetry for dynamics (positions and initial velocities):
=====================================================================
 Subroutine PRICEL returns:
 Original cell was already a primitive cell.
 

 Routine SETGRP: Setting up the symmetry group for a 
 simple cubic supercell.


 Subroutine GETGRP returns: Found  1 space group operations
 (whereof  1 operations were pure point group operations)
 out of a pool of 48 trial point group operations.


The dynamic configuration has the point symmetry C_1 .


Analysis of structural, dynamic, and magnetic symmetry:
=====================================================================
 Subroutine PRICEL returns:
 Original cell was already a primitive cell.
 

 Routine SETGRP: Setting up the symmetry group for a 
 simple cubic supercell.


 Subroutine GETGRP returns: Found  1 space group operations
 (whereof  1 operations were pure point group operations)
 out of a pool of 48 trial point group operations.


The magnetic configuration has the point symmetry C_1 .


 Subroutine INISYM returns: Found  1 space group operations
 (whereof  1 operations are pure point group operations),
 and found     1 'primitive' translations

 
 
 KPOINTS: Gamma-point only                        
  k-points in reciprocal lattice
Space group operators:
 irot       det(A)        alpha          n_x          n_y          n_z        tau_x        tau_y        tau_z
    1     1.000000     0.000000     1.000000     0.000000     0.000000     0.000000     0.000000     0.000000


--------------------------------------------------------------------------------------------------------




 Dimension of arrays:
   k-points           NKPTS =      1   k-points in BZ     NKDIM =      1   number of bands    NBANDS=    364
   number of dos      NEDOS =    301   number of ions     NIONS =     40
   non local maximal  LDIM  =      6   non local SUM 2l+1 LMDIM =     18
   total plane-waves  NPLWV = ******
   max r-space proj   IRMAX =      1   max aug-charges    IRDMAX=   2451
   dimension x,y,z NGX =   120 NGY =  120 NGZ =  120
   dimension x,y,z NGXF=   240 NGYF=  240 NGZF=  240
   support grid    NGXF=   240 NGYF=  240 NGZF=  240
   ions per type =              40
 NGX,Y,Z   is equivalent  to a cutoff of   7.10,  7.10,  7.10 a.u.
 NGXF,Y,Z  is equivalent  to a cutoff of  14.19, 14.19, 14.19 a.u.


 I would recommend the setting:
   dimension x,y,z NGX =   118 NGY =  118 NGZ =  118
 SYSTEM =  unknown system                          
 POSCAR =  Cu-40-1 <s> Cu </s>                     

 Startparameter for this run:
   NWRITE =      2    write-flag & timer
   PREC   = normal    normal or accurate (medium, high low for compatibility)
   ISTART =      0    job   : 0-new  1-cont  2-samecut
   ICHARG =      2    charge: 1-file 2-atom 10-const
   ISPIN  =      2    spin polarized calculation?
   LNONCOLLINEAR =      F non collinear calculations
   LSORBIT =      F    spin-orbit coupling
   INIWAV =      1    electr: 0-lowe 1-rand  2-diag
   LASPH  =      F    aspherical Exc in radial PAW
   METAGGA=      F    non-selfconsistent MetaGGA calc.

 Electronic Relaxation 1
   ENCUT  =  295.4 eV  21.71 Ry    4.66 a.u.  39.40 39.40 39.40*2*pi/ulx,y,z
   ENINI  =  295.4     initial cutoff
   ENAUG  =  587.0 eV  augmentation charge cutoff
   NELM   =     60;   NELMIN=  2; NELMDL=-12     # of ELM steps 
   EDIFF  = 0.1E-05   stopping-criterion for ELM
   LREAL  =      F    real-space projection
   NLSPLINE    = F    spline interpolate recip. space projectors
   LCOMPAT=      F    compatible to vasp.4.4
   GGA_COMPAT  = T    GGA compatible to vasp.4.4-vasp.4.6
   LMAXPAW     = -100 max onsite density
   LMAXMIX     =    2 max onsite mixed and CHGCAR
   VOSKOWN=      0    Vosko Wilk Nusair interpolation
   ROPT   =    0.00000
 Ionic relaxation
   EDIFFG = -.3E-01   stopping-criterion for IOM
   NSW    =   1000    number of steps for IOM
   NBLOCK =      1;   KBLOCK =   1000    inner block; outer block 
   IBRION =      2    ionic relax: 0-MD 1-quasi-New 2-CG
   NFREE  =      1    steps in history (QN), initial steepest desc. (CG)
   ISIF   =      2    stress and relaxation
   IWAVPR =     11    prediction:  0-non 1-charg 2-wave 3-comb
   ISYM   =      2    0-nonsym 1-usesym 2-fastsym
   LCORR  =      T    Harris-Foulkes like correction to forces

   POTIM  = 0.5000    time-step for ionic-motion
   TEIN   =    0.0    initial temperature
   TEBEG  =    0.0;   TEEND  =   0.0 temperature during run
   SMASS  =  -3.00    Nose mass-parameter (am)
   estimated Nose-frequenzy (Omega)   =  0.10E-29 period in steps =****** mass=  -0.181E-25a.u.
   SCALEE = 1.0000    scale energy and forces
   NPACO  =    256;   APACO  = 16.0  distance and # of slots for P.C.
   PSTRESS=    0.0 pullay stress

  Mass of Ions in am
   POMASS =  63.55
  Ionic Valenz
   ZVAL   =  11.00
  Atomic Wigner-Seitz radii
   RWIGS  =  -1.00
  virtual crystal weights 
   VCA    =   1.00
   NELECT =     440.0000    total number of electrons
   NUPDOWN=      -1.0000    fix difference up-down

 DOS related values:
   EMIN   =  10.00;   EMAX   =-10.00  energy-range for DOS
   EFERMI =   0.00
   ISMEAR =     0;   SIGMA  =   0.00  broadening in eV -4-tet -1-fermi 0-gaus

 Electronic relaxation 2 (details)
   IALGO  =     48    algorithm
   LDIAG  =      T    sub-space diagonalisation (order eigenvalues)
   LSUBROT=      F    optimize rotation matrix (better conditioning)
   TURBO    =      0    0=normal 1=particle mesh
   IRESTART =      0    0=no restart 2=restart with 2 vectors
   NREBOOT  =      0    no. of reboots
   NMIN     =      0    reboot dimension
   EREF     =   0.00    reference energy to select bands
   IMIX   =      4    mixing-type and parameters
     AMIX     =   0.40;   BMIX     =  1.00
     AMIX_MAG =   1.60;   BMIX_MAG =  1.00
     AMIN     =   0.10
     WC   =   100.;   INIMIX=   1;  MIXPRE=   1;  MAXMIX= -45

 Intra band minimization:
   WEIMIN = 0.0010     energy-eigenvalue tresh-hold
   EBREAK =  0.69E-09  absolut break condition
   DEPER  =   0.30     relativ break condition  

   TIME   =   0.40     timestep for ELM

  volume/ion in A,a.u.               =     555.63      3749.58
  Fermi-wavevector in a.u.,A,eV,Ry     =   0.442871  0.836904  2.668571  0.196134
  Thomas-Fermi vector in A             =   1.419033
 
 Write flags
   LWAVE  =      F    write WAVECAR
   LCHARG =      F    write CHGCAR
   LVTOT  =      F    write LOCPOT, total local potential
   LVHAR  =      F    write LOCPOT, Hartree potential only
   LELF   =      F    write electronic localiz. function (ELF)
   LORBIT =     11    0 simple, 1 ext, 2 COOP (PROOUT)


 Dipole corrections
   LMONO  =      F    monopole corrections only (constant potential shift)
   LDIPOL =      F    correct potential (dipole corrections)
   IDIPOL =      0    1-x, 2-y, 3-z, 4-all directions 
   EPSILON=  1.0000000 bulk dielectric constant

 Exchange correlation treatment:
   GGA     =    PE    GGA type
   LEXCH   =     8    internal setting for exchange type
   VOSKOWN=      0    Vosko Wilk Nusair interpolation
   LHFCALC =     F    Hartree Fock is set to
   LHFONE  =     F    Hartree Fock one center treatment
   AEXX    =    0.0000 exact exchange contribution

 Linear response parameters
   LEPSILON=     F    determine dielectric tensor
   LRPA    =     F    only Hartree local field effects (RPA)
   LNABLA  =     F    use nabla operator in PAW spheres
   LVEL    =     F    velocity operator in full k-point grid
   LINTERFAST=   F  fast interpolation
   KINTER  =     0    interpolate to denser k-point grid
   CSHIFT  =0.1000    complex shift for real part using Kramers Kronig
   OMEGAMAX=  -1.0    maximum frequency
   DEG_THRESHOLD= 0.2000000E-02 threshold for treating states as degnerate
   RTIME   =    0.100 relaxation time in fs

 Orbital magnetization related:
   ORBITALMAG=     F  switch on orbital magnetization
   LCHIMAG   =     F  perturbation theory with respect to B field
   DQ        =  0.001000  dq finite difference perturbation B field



--------------------------------------------------------------------------------------------------------


 conjugate gradient relaxation of ions
 charge density and potential will be updated during run
 spin polarized calculation
 RMM-DIIS sequential band-by-band
 perform sub-space diagonalisation
    before iterative eigenvector-optimisation
 modified Broyden-mixing scheme, WC =      100.0
 initial mixing is a Kerker type mixing with AMIX =  0.4000 and BMIX =      1.0000
 Hartree-type preconditioning will be used
 using additional bands          144
 reciprocal scheme for non local part
 use partial core corrections
 calculate Harris-corrections to forces 
   (improved forces if not selfconsistent)
 use gradient corrections 
 use of overlap-Matrix (Vanderbilt PP)
 Gauss-broadening in eV      SIGMA  =   0.00


--------------------------------------------------------------------------------------------------------


  energy-cutoff  :      295.45
  volume of cell :    22225.24
      direct lattice vectors                 reciprocal lattice vectors
    28.115694195  0.000000000  0.000000000     0.035567324  0.000000000  0.000000000
     0.000000000 28.115694195  0.000000000     0.000000000  0.035567324  0.000000000
     0.000000000  0.000000000 28.115694195     0.000000000  0.000000000  0.035567324

  length of vectors
    28.115694195 28.115694195 28.115694195     0.035567324  0.035567324  0.035567324


 
 k-points in units of 2pi/SCALE and weight: Gamma-point only                        
   0.00000000  0.00000000  0.00000000       1.000
 
 k-points in reciprocal lattice and weights: Gamma-point only                        
   0.00000000  0.00000000  0.00000000       1.000
 
 position of ions in fractional coordinates (direct lattice) 
   0.49794432  0.50000010  0.54449699
   0.49673868  0.50000027  0.62606201
   0.53402480  0.42543092  0.58297933
   0.44887183  0.42531504  0.58368206
   0.44887182  0.57468530  0.58368169
   0.53402480  0.57456944  0.58297894
   0.57926466  0.50000017  0.58225274
   0.47590349  0.42679309  0.49943028
   0.42509354  0.50000000  0.50010939
   0.47590349  0.57320692  0.49942988
   0.56264825  0.54554913  0.50282639
   0.56264825  0.45445090  0.50282663
   0.50154213  0.49999990  0.45568221
   0.41166798  0.50000019  0.59590936
   0.58738659  0.37676707  0.53272552
   0.50064703  0.35568116  0.53691754
   0.40987343  0.37391296  0.52622842
   0.36842927  0.44964082  0.53808203
   0.36842927  0.55035933  0.53808187
   0.40987340  0.62608713  0.52622804
   0.50064708  0.64431899  0.53691679
   0.58738656  0.62323308  0.53272493
   0.64093862  0.54482791  0.53665711
   0.64093862  0.45517225  0.53665744
   0.54087167  0.37905344  0.45857505
   0.45633952  0.35499330  0.45612068
   0.39771662  0.42533575  0.45627426
   0.34974559  0.49999992  0.46381229
   0.39771663  0.57466406  0.45627387
   0.45633951  0.64500651  0.45611995
   0.54087166  0.62094638  0.45857459
   0.62484433  0.58905817  0.46150650
   0.62879808  0.49999992  0.46076059
   0.62484435  0.41094167  0.46150683
   0.47790445  0.42617172  0.41013964
   0.42316128  0.49999981  0.41102473
   0.47790443  0.57382790  0.41013920
   0.56523300  0.54543470  0.41309421
   0.56523300  0.45456494  0.41309447
   0.50277798  0.49999972  0.36941552
 
 position of ions in cartesian coordinates  (Angst):
  14.00005026 14.05784989 15.30891081
  13.96615272 14.05785455 17.60216807
  15.01447801 11.96128568 16.39086866
  12.62034309 11.95802764 16.41062629
  12.62034281 16.15767613 16.41061579
  15.01447783 16.15441857 16.39085761
  16.28642796 14.05785192 16.37044006
  13.38035701 11.99958390 14.04182895
  11.95179993 14.05784717 14.06092257
  13.38035708 16.11611037 14.04181791
  15.81924601 15.33849244 14.13731294
  15.81924613 12.77720245 14.13731980
  14.10120519 14.05784431 12.81182167
  11.57433111 14.05785255 16.75440542
  16.51478172 10.59306769 14.97794777
  14.07603880 10.00022285 15.09580948
  11.52387591 10.51282249 14.79527746
  10.35864470 12.64196374 15.12854972
  10.35864475 15.47373464 15.12854544
  11.52387516 17.60287439 14.79526667
  14.07604006 18.11547562 15.09578820
  16.51478082 17.52263069 14.97793109
  18.02043416 15.31821500 15.08848726
  18.02043423 12.79748377 15.08849650
  15.20698239 10.65735057 12.89315585
  12.83030244  9.98088315 12.82414967
  11.18207892 11.95860977 12.82846751
   9.83334007 14.05784498 13.04040461
  11.18207908 16.15707897 12.82845672
  12.83030222 18.13480580 12.82412892
  15.20698223 17.45833867 12.89314306
  17.56793216 16.56177948 12.97557573
  17.67909456 14.05784496 12.95460385
  17.56793273 11.55391030 12.97558496
  13.43661534 11.98211378 11.53136070
  11.89747316 14.05784175 11.55624548
  13.43661493 16.13356981 11.53134843
  15.89191808 15.33527513 11.61443059
  15.89191806 12.78040897 11.61443793
  14.13595206 14.05783934 10.38637375
 


--------------------------------------------------------------------------------------------------------


 use parallel FFT for wavefunctions z direction half grid
 k-point  1 :   0.0000 0.0000 0.0000  plane waves:  128084

 maximum and minimum number of plane-waves per node :     21353    21342

 maximum number of plane-waves:    128084
 maximum index in each direction: 
   IXMAX=   39   IYMAX=   39   IZMAX=   39
   IXMIN=  -39   IYMIN=  -39   IZMIN=    0

 WARNING: aliasing errors must be expected set NGX to 158 to avoid them
 WARNING: aliasing errors must be expected set NGY to 158 to avoid them
 WARNING: aliasing errors must be expected set NGZ to 158 to avoid them
 aliasing errors are usually negligible using standard VASP settings
 and one can safely disregard these warnings

 parallel 3D FFT for wavefunctions:
    minimum data exchange during FFTs selected (reduces bandwidth)
 parallel 3D FFT for charge:
    minimum data exchange during FFTs selected (reduces bandwidth)


 total amount of memory used by VASP on root node   199753. kBytes
========================================================================

   base      :      30000. kBytes
   nonl-proj :      16743. kBytes
   fftplans  :      25670. kBytes
   grid      :      64857. kBytes
   one-center:        108. kBytes
   wavefun   :      62375. kBytes
 
     INWAV:  cpu time    0.0000: real time    0.0003
 Broyden mixing: mesh for mixing (old mesh)
   NGX = 79   NGY = 79   NGZ = 79
  (NGX  =240   NGY  =240   NGZ  =240)
  gives a total of 493039 points

 initial charge density was supplied:
 charge density of overlapping atoms calculated
 number of electron     440.0000000 magnetization     200.0000000
 keeping initial charge density in first step


--------------------------------------------------------------------------------------------------------


 Maximum index for augmentation-charges          204 (set IRDMAX)


--------------------------------------------------------------------------------------------------------


 First call to EWALD:  gamma=   0.063
 Maximum number of real-space cells 3x 3x 3
 Maximum number of reciprocal cells 3x 3x 3

 FEWALD executed in parallel
    FEWALD:  cpu time    0.0025: real time    0.0025


----------------------------------------- Iteration    1(   1)  ---------------------------------------


    POTLOK:  cpu time    1.1192: real time    1.1199
    SETDIJ:  cpu time    0.0201: real time    0.0204
    EDDIAG:  cpu time    3.6615: real time    3.6640
  RMM-DIIS:  cpu time   25.6226: real time   25.6404
    ORTHCH:  cpu time    0.4061: real time    0.4062
       DOS:  cpu time    0.0002: real time    0.0002
    --------------------------------------------
      LOOP:  cpu time   30.8333: real time   30.8571

 eigenvalue-minimisations  :   728
 total energy-change (2. order) : 0.4062869E+04  (-0.5949939E+04)
 number of electron     440.0000000 magnetization     200.0000000
 augmentation part      440.0000000 magnetization     200.0000000

 Free energy of the ion-electron system (eV)
  ---------------------------------------------------
  alpha Z        PSCENC =        52.64847221
  Ewald energy   TEWEN  =    178590.39637212
  -Hartree energ DENC   =   -229205.51518244
  -exchange      EXHF   =         0.00000000
  -V(xc)+E(xc)   XCENC  =      1921.78918556
  PAW double counting   =     49016.75509994   -53232.81750363
  entropy T*S    EENTRO =         0.00000000
  eigenvalues    EBANDS =      1282.18884844
  atomic energy  EATOM  =     55637.42338631
  Solvation  Ediel_sol  =         0.00000000
  ---------------------------------------------------
  free energy    TOTEN  =      4062.86867851 eV

  energy without entropy =     4062.86867851  energy(sigma->0) =     4062.86867851


--------------------------------------------------------------------------------------------------------




----------------------------------------- Iteration    1(   2)  ---------------------------------------


    EDDIAG:  cpu time    3.6992: real time    3.7113
  RMM-DIIS:  cpu time   24.0741: real time   24.4372
    ORTHCH:  cpu time    0.3473: real time    0.3476
       DOS:  cpu time    0.0002: real time    0.0002
    --------------------------------------------
      LOOP:  cpu time   28.1237: real time   28.5023

 eigenvalue-minimisations  :   728
 total energy-change (2. order) :-0.1496916E+04  (-0.1487449E+04)
 number of electron     440.0000000 magnetization     200.0000000
 augmentation part      440.0000000 magnetization     200.0000000

 Free energy of the ion-electron system (eV)
  ---------------------------------------------------
  alpha Z        PSCENC =        52.64847221
  Ewald energy   TEWEN  =    178590.39637212
  -Hartree energ DENC   =   -229205.51518244
  -exchange      EXHF   =         0.00000000
  -V(xc)+E(xc)   XCENC  =      1921.78918556
  PAW double counting   =     49016.75509994   -53232.81750363
  entropy T*S    EENTRO =        -0.00000000
  eigenvalues    EBANDS =      -214.72696795
  atomic energy  EATOM  =     55637.42338631
  Solvation  Ediel_sol  =         0.00000000
  ---------------------------------------------------
  free energy    TOTEN  =      2565.95286212 eV

  energy without entropy =     2565.95286212  energy(sigma->0) =     2565.95286212


--------------------------------------------------------------------------------------------------------




----------------------------------------- Iteration    1(   3)  ---------------------------------------


    EDDIAG:  cpu time    3.7119: real time    3.7155
  RMM-DIIS:  cpu time   25.7160: real time   25.7333
    ORTHCH:  cpu time    0.3378: real time    0.3385
       DOS:  cpu time    0.0002: real time    0.0002
    --------------------------------------------
      LOOP:  cpu time   29.7687: real time   29.7931

 eigenvalue-minimisations  :   728
 total energy-change (2. order) :-0.1055080E+04  (-0.1429984E+04)
 number of electron     440.0000000 magnetization     200.0000000
 augmentation part      440.0000000 magnetization     200.0000000

 Free energy of the ion-electron system (eV)
  ---------------------------------------------------
  alpha Z        PSCENC =        52.64847221
  Ewald energy   TEWEN  =    178590.39637212
  -Hartree energ DENC   =   -229205.51518244
  -exchange      EXHF   =         0.00000000
  -V(xc)+E(xc)   XCENC  =      1921.78918556
  PAW double counting   =     49016.75509994   -53232.81750363
  entropy T*S    EENTRO =        -0.00000000
  eigenvalues    EBANDS =     -1269.80734867
  atomic energy  EATOM  =     55637.42338631
  Solvation  Ediel_sol  =         0.00000000
  ---------------------------------------------------
  free energy    TOTEN  =      1510.87248140 eV

  energy without entropy =     1510.87248140  energy(sigma->0) =     1510.87248140


--------------------------------------------------------------------------------------------------------




----------------------------------------- Iteration    1(   4)  ---------------------------------------


    EDDIAG:  cpu time    3.6826: real time    3.6861
  RMM-DIIS:  cpu time   25.2645: real time   25.3029
    ORTHCH:  cpu time    0.3365: real time    0.3366
       DOS:  cpu time    0.0001: real time    0.0001
    --------------------------------------------
      LOOP:  cpu time   29.2865: real time   29.3312

 eigenvalue-minimisations  :   728
 total energy-change (2. order) :-0.8755873E+03  (-0.7587795E+03)
 number of electron     440.0000000 magnetization     200.0000000
 augmentation part      440.0000000 magnetization     200.0000000

 Free energy of the ion-electron system (eV)
  ---------------------------------------------------
  alpha Z        PSCENC =        52.64847221
  Ewald energy   TEWEN  =    178590.39637212
  -Hartree energ DENC   =   -229205.51518244
  -exchange      EXHF   =         0.00000000
  -V(xc)+E(xc)   XCENC  =      1921.78918556
  PAW double counting   =     49016.75509994   -53232.81750363
  entropy T*S    EENTRO =        -0.00000000
  eigenvalues    EBANDS =     -2145.39464049
  atomic energy  EATOM  =     55637.42338631
  Solvation  Ediel_sol  =         0.00000000
  ---------------------------------------------------
  free energy    TOTEN  =       635.28518958 eV

  energy without entropy =      635.28518958  energy(sigma->0) =      635.28518958


--------------------------------------------------------------------------------------------------------




----------------------------------------- Iteration    1(   5)  ---------------------------------------


    EDDIAG:  cpu time    3.6861: real time    3.6896
  RMM-DIIS:  cpu time   26.0406: real time   26.0622
    ORTHCH:  cpu time    0.3539: real time    0.3543
       DOS:  cpu time    0.0002: real time    0.0002
    --------------------------------------------
      LOOP:  cpu time   30.0837: real time   30.1109

 eigenvalue-minimisations  :   728
 total energy-change (2. order) :-0.3892420E+03  (-0.2860814E+03)
 number of electron     440.0000000 magnetization     200.0000000
 augmentation part      440.0000000 magnetization     200.0000000

 Free energy of the ion-electron system (eV)
  ---------------------------------------------------
  alpha Z        PSCENC =        52.64847221
  Ewald energy   TEWEN  =    178590.39637212
  -Hartree energ DENC   =   -229205.51518244
  -exchange      EXHF   =         0.00000000
  -V(xc)+E(xc)   XCENC  =      1921.78918556
  PAW double counting   =     49016.75509994   -53232.81750363
  entropy T*S    EENTRO =         0.00000000
  eigenvalues    EBANDS =     -2534.63660043
  atomic energy  EATOM  =     55637.42338631
  Solvation  Ediel_sol  =         0.00000000
  ---------------------------------------------------
  free energy    TOTEN  =       246.04322964 eV

  energy without entropy =      246.04322964  energy(sigma->0) =      246.04322964


--------------------------------------------------------------------------------------------------------




----------------------------------------- Iteration    1(   6)  ---------------------------------------


    EDDIAG:  cpu time    3.6844: real time    3.6878
  RMM-DIIS:  cpu time   23.9127: real time   23.9420
    ORTHCH:  cpu time    0.3404: real time    0.3409
       DOS:  cpu time    0.0002: real time    0.0002
    --------------------------------------------
      LOOP:  cpu time   27.9410: real time   27.9768

 eigenvalue-minimisations  :   728
 total energy-change (2. order) :-0.1374453E+03  (-0.8571283E+02)
 number of electron     440.0000000 magnetization     200.0000000
 augmentation part      440.0000000 magnetization     200.0000000

 Free energy of the ion-electron system (eV)
  ---------------------------------------------------
  alpha Z        PSCENC =        52.64847221
  Ewald energy   TEWEN  =    178590.39637212
  -Hartree energ DENC   =   -229205.51518244
  -exchange      EXHF   =         0.00000000
  -V(xc)+E(xc)   XCENC  =      1921.78918556
  PAW double counting   =     49016.75509994   -53232.81750363
  entropy T*S    EENTRO =         0.00000000
  eigenvalues    EBANDS =     -2672.08190935
  atomic energy  EATOM  =     55637.42338631
  Solvation  Ediel_sol  =         0.00000000
  ---------------------------------------------------
  free energy    TOTEN  =       108.59792072 eV

  energy without entropy =      108.59792072  energy(sigma->0) =      108.59792072


--------------------------------------------------------------------------------------------------------




----------------------------------------- Iteration    1(   7)  ---------------------------------------


    EDDIAG:  cpu time    3.6866: real time    3.6909
  RMM-DIIS:  cpu time   25.0860: real time   25.1071
    ORTHCH:  cpu time    0.3400: real time    0.3403
       DOS:  cpu time    0.0001: real time    0.0001
    --------------------------------------------
      LOOP:  cpu time   29.1166: real time   29.1449

 eigenvalue-minimisations  :   728
 total energy-change (2. order) :-0.4656006E+02  (-0.4109939E+02)
 number of electron     440.0000000 magnetization     200.0000000
 augmentation part      440.0000000 magnetization     200.0000000

 Free energy of the ion-electron system (eV)
  ---------------------------------------------------
  alpha Z        PSCENC =        52.64847221
  Ewald energy   TEWEN  =    178590.39637212
  -Hartree energ DENC   =   -229205.51518244
  -exchange      EXHF   =         0.00000000
  -V(xc)+E(xc)   XCENC  =      1921.78918556
  PAW double counting   =     49016.75509994   -53232.81750363
  entropy T*S    EENTRO =         0.00000000
  eigenvalues    EBANDS =     -2718.64196719
  atomic energy  EATOM  =     55637.42338631
  Solvation  Ediel_sol  =         0.00000000
  ---------------------------------------------------
  free energy    TOTEN  =        62.03786288 eV

  energy without entropy =       62.03786288  energy(sigma->0) =       62.03786288


--------------------------------------------------------------------------------------------------------




----------------------------------------- Iteration    1(   8)  ---------------------------------------


    EDDIAG:  cpu time    3.6841: real time    3.6873
  RMM-DIIS:  cpu time   24.3778: real time   24.4386
    ORTHCH:  cpu time    0.3470: real time    0.3473
       DOS:  cpu time    0.0002: real time    0.0002
    --------------------------------------------
      LOOP:  cpu time   28.4119: real time   28.4792

 eigenvalue-minimisations  :   728
 total energy-change (2. order) :-0.1980408E+02  (-0.1774931E+02)
 number of electron     440.0000000 magnetization     200.0000000
 augmentation part      440.0000000 magnetization     200.0000000

 Free energy of the ion-electron system (eV)
  ---------------------------------------------------
  alpha Z        PSCENC =        52.64847221
  Ewald energy   TEWEN  =    178590.39637212
  -Hartree energ DENC   =   -229205.51518244
  -exchange      EXHF   =         0.00000000
  -V(xc)+E(xc)   XCENC  =      1921.78918556
  PAW double counting   =     49016.75509994   -53232.81750363
  entropy T*S    EENTRO =         0.00000000
  eigenvalues    EBANDS =     -2738.44604685
  atomic energy  EATOM  =     55637.42338631
  Solvation  Ediel_sol  =         0.00000000
  ---------------------------------------------------
  free energy    TOTEN  =        42.23378323 eV

  energy without entropy =       42.23378323  energy(sigma->0) =       42.23378323


--------------------------------------------------------------------------------------------------------




----------------------------------------- Iteration    1(   9)  ---------------------------------------


    EDDIAG:  cpu time    3.6845: real time    3.6880
  RMM-DIIS:  cpu time   56.2489: real time   56.2986
    ORTHCH:  cpu time    0.3401: real time    0.3404
       DOS:  cpu time    0.0002: real time    0.0002
    --------------------------------------------
      LOOP:  cpu time   60.2771: real time   60.3334

 eigenvalue-minimisations  :  1655
 total energy-change (2. order) :-0.2511203E+02  (-0.2337439E+02)
 number of electron     440.0000000 magnetization     200.0000000
 augmentation part      440.0000000 magnetization     200.0000000

 Free energy of the ion-electron system (eV)
  ---------------------------------------------------
  alpha Z        PSCENC =        52.64847221
  Ewald energy   TEWEN  =    178590.39637212
  -Hartree energ DENC   =   -229205.51518244
  -exchange      EXHF   =         0.00000000
  -V(xc)+E(xc)   XCENC  =      1921.78918556
  PAW double counting   =     49016.75509994   -53232.81750363
  entropy T*S    EENTRO =        -0.00000000
  eigenvalues    EBANDS =     -2763.55807569
  atomic energy  EATOM  =     55637.42338631
  Solvation  Ediel_sol  =         0.00000000
  ---------------------------------------------------
  free energy    TOTEN  =        17.12175438 eV

  energy without entropy =       17.12175438  energy(sigma->0) =       17.12175438


--------------------------------------------------------------------------------------------------------




----------------------------------------- Iteration    1(  10)  ---------------------------------------


    EDDIAG:  cpu time    3.6875: real time    3.6912
  RMM-DIIS:  cpu time   49.0696: real time   49.1255
    ORTHCH:  cpu time    0.3396: real time    0.3448
       DOS:  cpu time    0.0001: real time    0.0001
    --------------------------------------------
      LOOP:  cpu time   53.1001: real time   53.1679

 eigenvalue-minimisations  :  1521
 total energy-change (2. order) :-0.3296231E+01  (-0.2381129E+01)
 number of electron     440.0000000 magnetization     200.0000000
 augmentation part      440.0000000 magnetization     200.0000000

 Free energy of the ion-electron system (eV)
  ---------------------------------------------------
  alpha Z        PSCENC =        52.64847221
  Ewald energy   TEWEN  =    178590.39637212
  -Hartree energ DENC   =   -229205.51518244
  -exchange      EXHF   =         0.00000000
  -V(xc)+E(xc)   XCENC  =      1921.78918556
  PAW double counting   =     49016.75509994   -53232.81750363
  entropy T*S    EENTRO =         0.00000000
  eigenvalues    EBANDS =     -2766.85430691
  atomic energy  EATOM  =     55637.42338631
  Solvation  Ediel_sol  =         0.00000000
  ---------------------------------------------------
  free energy    TOTEN  =        13.82552316 eV

  energy without entropy =       13.82552316  energy(sigma->0) =       13.82552316


--------------------------------------------------------------------------------------------------------




----------------------------------------- Iteration    1(  11)  ---------------------------------------


    EDDIAG:  cpu time    3.5765: real time    4.0660
  RMM-DIIS:  cpu time   53.7654: real time   53.8265
    ORTHCH:  cpu time    0.3372: real time    0.3375
       DOS:  cpu time    0.0002: real time    0.0002
    --------------------------------------------
      LOOP:  cpu time   57.6822: real time   58.2363

 eigenvalue-minimisations  :  1644
 total energy-change (2. order) :-0.2733498E+01  (-0.1594834E+01)
 number of electron     440.0000000 magnetization     200.0000000
 augmentation part      440.0000000 magnetization     200.0000000

 Free energy of the ion-electron system (eV)
  ---------------------------------------------------
  alpha Z        PSCENC =        52.64847221
  Ewald energy   TEWEN  =    178590.39637212
  -Hartree energ DENC   =   -229205.51518244
  -exchange      EXHF   =         0.00000000
  -V(xc)+E(xc)   XCENC  =      1921.78918556
  PAW double counting   =     49016.75509994   -53232.81750363
  entropy T*S    EENTRO =         0.00000000
  eigenvalues    EBANDS =     -2769.58780446
  atomic energy  EATOM  =     55637.42338631
  Solvation  Ediel_sol  =         0.00000000
  ---------------------------------------------------
  free energy    TOTEN  =        11.09202562 eV

  energy without entropy =       11.09202562  energy(sigma->0) =       11.09202562


--------------------------------------------------------------------------------------------------------




----------------------------------------- Iteration    1(  12)  ---------------------------------------


    EDDIAG:  cpu time    3.6845: real time    3.6880
  RMM-DIIS:  cpu time   53.5287: real time   53.6227
    ORTHCH:  cpu time    0.3803: real time    0.3805
       DOS:  cpu time    0.0002: real time    0.0002
    CHARGE:  cpu time    1.2485: real time    1.2496
    MIXING:  cpu time    0.0237: real time    0.0241
    --------------------------------------------
      LOOP:  cpu time   58.8692: real time   58.9711

 eigenvalue-minimisations  :  1638
 total energy-change (2. order) :-0.4976985E+00  (-0.1793677E+00)
 number of electron     440.0001132 magnetization     188.2797294
 augmentation part      249.3104985 magnetization     177.9821015

 Broyden mixing:
  rms(total) = 0.17737E+02    rms(broyden)= 0.17735E+02
  rms(prec ) = 0.17829E+02
  weight for this iteration     100.00

 Free energy of the ion-electron system (eV)
  ---------------------------------------------------
  alpha Z        PSCENC =        52.64847221
  Ewald energy   TEWEN  =    178590.39637212
  -Hartree energ DENC   =   -229205.51518244
  -exchange      EXHF   =         0.00000000
  -V(xc)+E(xc)   XCENC  =      1921.78918556
  PAW double counting   =     49016.75509994   -53232.81750363
  entropy T*S    EENTRO =        -0.00000000
  eigenvalues    EBANDS =     -2770.08550301
  atomic energy  EATOM  =     55637.42338631
  Solvation  Ediel_sol  =         0.00000000
  ---------------------------------------------------
  free energy    TOTEN  =        10.59432707 eV

  energy without entropy =       10.59432707  energy(sigma->0) =       10.59432707


--------------------------------------------------------------------------------------------------------




----------------------------------------- Iteration    1(  13)  ---------------------------------------


    POTLOK:  cpu time    1.1073: real time    1.1089
    SETDIJ:  cpu time    0.0201: real time    0.0202
    EDDIAG:  cpu time    3.6886: real time    3.6927
  RMM-DIIS:  cpu time   50.9813: real time   51.0288
    ORTHCH:  cpu time    0.3401: real time    0.3410
       DOS:  cpu time    0.0002: real time    0.0002
    CHARGE:  cpu time    1.2352: real time    1.2362
    MIXING:  cpu time    0.0273: real time    0.0273
    --------------------------------------------
      LOOP:  cpu time   57.4038: real time   57.4618

 eigenvalue-minimisations  :  1457
 total energy-change (2. order) : 0.4693048E+03  (-0.3183307E+03)
 number of electron     440.0001481 magnetization     179.3636381
 augmentation part      321.0862928 magnetization     122.2424788

 Broyden mixing:
  rms(total) = 0.94631E+01    rms(broyden)= 0.94597E+01
  rms(prec ) = 0.96694E+01
  weight for this iteration     100.00

 eigenvalues of (default mixing * dielectric matrix)
  average eigenvalue GAMMA=   0.9741
  0.9741

 Free energy of the ion-electron system (eV)
  ---------------------------------------------------
  alpha Z        PSCENC =        52.64847221
  Ewald energy   TEWEN  =    178590.39637212
  -Hartree energ DENC   =   -227400.19872775
  -exchange      EXHF   =         0.00000000
  -V(xc)+E(xc)   XCENC  =      2220.75104561
  PAW double counting   =     48527.64879777   -52457.57886005
  entropy T*S    EENTRO =         0.00000000
  eigenvalues    EBANDS =     -4691.19140795
  atomic energy  EATOM  =     55637.42338631
  Solvation  Ediel_sol  =         0.00000000
  ---------------------------------------------------
  free energy    TOTEN  =       479.89907828 eV

  energy without entropy =      479.89907828  energy(sigma->0) =      479.89907828


--------------------------------------------------------------------------------------------------------




----------------------------------------- Iteration    1(  14)  ---------------------------------------


    POTLOK:  cpu time    1.0997: real time    1.1075
    SETDIJ:  cpu time    0.0202: real time    0.0206
    EDDIAG:  cpu time    3.6836: real time    3.6874
  RMM-DIIS:  cpu time   47.7960: real time   47.8663
    ORTHCH:  cpu time    0.3463: real time    0.3465
       DOS:  cpu time    0.0002: real time    0.0002
    CHARGE:  cpu time    1.2669: real time    1.2679
    MIXING:  cpu time    0.0276: real time    0.0276
    --------------------------------------------
      LOOP:  cpu time   54.2444: real time   54.3307

 eigenvalue-minimisations  :  1460
 total energy-change (2. order) : 0.1496832E+03  (-0.9547610E+02)
 number of electron     440.0001337 magnetization     164.4692130
 augmentation part      290.5176200 magnetization      99.1288694

 Broyden mixing:
  rms(total) = 0.45932E+01    rms(broyden)= 0.45923E+01
  rms(prec ) = 0.45979E+01
  weight for this iteration     100.00

 eigenvalues of (default mixing * dielectric matrix)
  average eigenvalue GAMMA=   1.0228
  1.3211  0.7245

 Free energy of the ion-electron system (eV)
  ---------------------------------------------------
  alpha Z        PSCENC =        52.64847221
  Ewald energy   TEWEN  =    178590.39637212
  -Hartree energ DENC   =   -228936.94965223
  -exchange      EXHF   =         0.00000000
  -V(xc)+E(xc)   XCENC  =      2269.06287082
  PAW double counting   =     50590.35060800   -55096.90176568
  entropy T*S    EENTRO =         0.00000000
  eigenvalues    EBANDS =     -2476.44801665
  atomic energy  EATOM  =     55637.42338631
  Solvation  Ediel_sol  =         0.00000000
  ---------------------------------------------------
  free energy    TOTEN  =       629.58227490 eV

  energy without entropy =      629.58227490  energy(sigma->0) =      629.58227490


--------------------------------------------------------------------------------------------------------




----------------------------------------- Iteration    1(  15)  ---------------------------------------


    POTLOK:  cpu time    1.1054: real time    1.1070
    SETDIJ:  cpu time    0.0208: real time    0.0212
    EDDIAG:  cpu time    3.6816: real time    3.6862
  RMM-DIIS:  cpu time   50.1851: real time   50.2266
    ORTHCH:  cpu time    0.3958: real time    0.3958
       DOS:  cpu time    0.0002: real time    0.0002
    CHARGE:  cpu time    1.2397: real time    1.2408
    MIXING:  cpu time    0.0314: real time    0.0314
    --------------------------------------------
      LOOP:  cpu time   56.6638: real time   56.7158

 eigenvalue-minimisations  :  1465
 total energy-change (2. order) :-0.1061099E+03  (-0.1926023E+02)
 number of electron     440.0001280 magnetization     158.0860425
 augmentation part      277.0966497 magnetization      95.8222235

 Broyden mixing:
  rms(total) = 0.42255E+01    rms(broyden)= 0.42248E+01
  rms(prec ) = 0.42725E+01
  weight for this iteration     100.00

 eigenvalues of (default mixing * dielectric matrix)
  average eigenvalue GAMMA=   0.8368
  1.1023  0.7041  0.7041

 Free energy of the ion-electron system (eV)
  ---------------------------------------------------
  alpha Z        PSCENC =        52.64847221
  Ewald energy   TEWEN  =    178590.39637212
  -Hartree energ DENC   =   -229214.69087950
  -exchange      EXHF   =         0.00000000
  -V(xc)+E(xc)   XCENC  =      2244.43496770
  PAW double counting   =     51538.97872086   -56127.55592475
  entropy T*S    EENTRO =         0.00000000
  eigenvalues    EBANDS =     -2198.16273392
  atomic energy  EATOM  =     55637.42338631
  Solvation  Ediel_sol  =         0.00000000
  ---------------------------------------------------
  free energy    TOTEN  =       523.47238103 eV

  energy without entropy =      523.47238103  energy(sigma->0) =      523.47238103


--------------------------------------------------------------------------------------------------------




----------------------------------------- Iteration    1(  16)  ---------------------------------------


    POTLOK:  cpu time    1.1180: real time    1.1258
    SETDIJ:  cpu time    0.0210: real time    0.0214
    EDDIAG:  cpu time    3.7207: real time    3.7248
  RMM-DIIS:  cpu time   46.3764: real time   46.7644
    ORTHCH:  cpu time    0.3696: real time    0.3697
       DOS:  cpu time    0.0002: real time    0.0002
    CHARGE:  cpu time    1.2602: real time    1.2612
    MIXING:  cpu time    0.0316: real time    0.0320
    --------------------------------------------
      LOOP:  cpu time   52.9015: real time   53.3158

 eigenvalue-minimisations  :  1458
 total energy-change (2. order) :-0.1530487E+03  (-0.8240839E+01)
 number of electron     440.0001280 magnetization     135.1033017
 augmentation part      282.2307050 magnetization      86.0512880

 Broyden mixing:
  rms(total) = 0.35985E+01    rms(broyden)= 0.35979E+01
  rms(prec ) = 0.36274E+01
  weight for this iteration     100.00

 eigenvalues of (default mixing * dielectric matrix)
  average eigenvalue GAMMA=   1.0919
  1.5854  1.5854  0.7402  0.4566

 Free energy of the ion-electron system (eV)
  ---------------------------------------------------
  alpha Z        PSCENC =        52.64847221
  Ewald energy   TEWEN  =    178590.39637212
  -Hartree energ DENC   =   -228857.38437968
  -exchange      EXHF   =         0.00000000
  -V(xc)+E(xc)   XCENC  =      2135.71957716
  PAW double counting   =     51353.07111506   -55802.32007865
  entropy T*S    EENTRO =         0.00000000
  eigenvalues    EBANDS =     -2739.13081870
  atomic energy  EATOM  =     55637.42338631
  Solvation  Ediel_sol  =         0.00000000
  ---------------------------------------------------
  free energy    TOTEN  =       370.42364583 eV

  energy without entropy =      370.42364583  energy(sigma->0) =      370.42364583


--------------------------------------------------------------------------------------------------------




----------------------------------------- Iteration    1(  17)  ---------------------------------------


    POTLOK:  cpu time    1.1064: real time    1.1073
    SETDIJ:  cpu time    0.0202: real time    0.0206
    EDDIAG:  cpu time    3.7203: real time    3.7248
  RMM-DIIS:  cpu time   49.2317: real time   49.2838
    ORTHCH:  cpu time    0.3807: real time    0.3808
       DOS:  cpu time    0.0002: real time    0.0002
    CHARGE:  cpu time    1.2691: real time    1.2701
    MIXING:  cpu time    0.0339: real time    0.0339
    --------------------------------------------
      LOOP:  cpu time   55.7661: real time   55.8279

 eigenvalue-minimisations  :  1458
 total energy-change (2. order) :-0.2471128E+03  (-0.3239577E+02)
 number of electron     440.0001366 magnetization     110.1923172
 augmentation part      298.1553627 magnetization      84.1272940

 Broyden mixing:
  rms(total) = 0.42634E+01    rms(broyden)= 0.42628E+01
  rms(prec ) = 0.43644E+01
  weight for this iteration     100.00

 eigenvalues of (default mixing * dielectric matrix)
  average eigenvalue GAMMA=   1.2850
  3.2887  1.3892  0.6546  0.6546  0.4377

 Free energy of the ion-electron system (eV)
  ---------------------------------------------------
  alpha Z        PSCENC =        52.64847221
  Ewald energy   TEWEN  =    178590.39637212
  -Hartree energ DENC   =   -228331.41492089
  -exchange      EXHF   =         0.00000000
  -V(xc)+E(xc)   XCENC  =      1956.55929824
  PAW double counting   =     51567.97280549   -55734.78653983
  entropy T*S    EENTRO =         0.00000000
  eigenvalues    EBANDS =     -3615.48806084
  atomic energy  EATOM  =     55637.42338631
  Solvation  Ediel_sol  =         0.00000000
  ---------------------------------------------------
  free energy    TOTEN  =       123.31081281 eV

  energy without entropy =      123.31081281  energy(sigma->0) =      123.31081281


--------------------------------------------------------------------------------------------------------




----------------------------------------- Iteration    1(  18)  ---------------------------------------


    POTLOK:  cpu time    1.1090: real time    1.1101
    SETDIJ:  cpu time    0.0198: real time    0.0202
    EDDIAG:  cpu time    3.6941: real time    3.6986
  RMM-DIIS:  cpu time   47.3074: real time   47.3734
    ORTHCH:  cpu time    0.3604: real time    0.3607
       DOS:  cpu time    0.0002: real time    0.0002
    CHARGE:  cpu time    1.2659: real time    1.2665
    MIXING:  cpu time    0.0375: real time    0.0375
    --------------------------------------------
      LOOP:  cpu time   53.7980: real time   53.8733

 eigenvalue-minimisations  :  1463
 total energy-change (2. order) :-0.3467659E+02  (-0.8293752E+01)
 number of electron     440.0001332 magnetization     103.3084069
 augmentation part      291.7770190 magnetization      79.8562610

 Broyden mixing:
  rms(total) = 0.26512E+01    rms(broyden)= 0.26510E+01
  rms(prec ) = 0.27182E+01
  weight for this iteration     100.00

 eigenvalues of (default mixing * dielectric matrix)
  average eigenvalue GAMMA=   1.2656
  3.6199  1.1070  0.8909  0.8909  0.6800  0.4052

 Free energy of the ion-electron system (eV)
  ---------------------------------------------------
  alpha Z        PSCENC =        52.64847221
  Ewald energy   TEWEN  =    178590.39637212
  -Hartree energ DENC   =   -228834.76507409
  -exchange      EXHF   =         0.00000000
  -V(xc)+E(xc)   XCENC  =      1933.77917917
  PAW double counting   =     52592.80241631   -56821.59784325
  entropy T*S    EENTRO =         0.00000000
  eigenvalues    EBANDS =     -3062.05268566
  atomic energy  EATOM  =     55637.42338631
  Solvation  Ediel_sol  =         0.00000000
  ---------------------------------------------------
  free energy    TOTEN  =        88.63422312 eV

  energy without entropy =       88.63422312  energy(sigma->0) =       88.63422312


--------------------------------------------------------------------------------------------------------




----------------------------------------- Iteration    1(  19)  ---------------------------------------


    POTLOK:  cpu time    1.1080: real time    1.1093
    SETDIJ:  cpu time    0.0211: real time    0.0215
    EDDIAG:  cpu time    3.7022: real time    3.7061
  RMM-DIIS:  cpu time   46.7933: real time   46.8326
    ORTHCH:  cpu time    0.3639: real time    0.3643
       DOS:  cpu time    0.0002: real time    0.0002
    CHARGE:  cpu time    1.2747: real time    1.2753
    MIXING:  cpu time    0.0410: real time    0.0410
    --------------------------------------------
      LOOP:  cpu time   53.3082: real time   53.3567

 eigenvalue-minimisations  :  1460
 total energy-change (2. order) :-0.3406117E+01  (-0.5870650E+01)
 number of electron     440.0001284 magnetization      82.7463170
 augmentation part      282.6181196 magnetization      58.2834579

 Broyden mixing:
  rms(total) = 0.14618E+01    rms(broyden)= 0.14614E+01
  rms(prec ) = 0.14721E+01
  weight for this iteration     100.00

 eigenvalues of (default mixing * dielectric matrix)
  average eigenvalue GAMMA=   1.3822
  4.5022  1.2536  1.2536  0.8272  0.8272  0.6053  0.4065

 Free energy of the ion-electron system (eV)
  ---------------------------------------------------
  alpha Z        PSCENC =        52.64847221
  Ewald energy   TEWEN  =    178590.39637212
  -Hartree energ DENC   =   -229093.76523745
  -exchange      EXHF   =         0.00000000
  -V(xc)+E(xc)   XCENC  =      1939.16387146
  PAW double counting   =     52558.36669531   -56887.07352800
  entropy T*S    EENTRO =        -0.00000000
  eigenvalues    EBANDS =     -2711.93192565
  atomic energy  EATOM  =     55637.42338631
  Solvation  Ediel_sol  =         0.00000000
  ---------------------------------------------------
  free energy    TOTEN  =        85.22810631 eV

  energy without entropy =       85.22810631  energy(sigma->0) =       85.22810631


--------------------------------------------------------------------------------------------------------




----------------------------------------- Iteration    1(  20)  ---------------------------------------


    POTLOK:  cpu time    1.1085: real time    1.1097
    SETDIJ:  cpu time    0.0204: real time    0.0208
    EDDIAG:  cpu time    3.7162: real time    3.7197
  RMM-DIIS:  cpu time   48.5089: real time   48.5699
    ORTHCH:  cpu time    0.3725: real time    0.3726
       DOS:  cpu time    0.0002: real time    0.0002
    CHARGE:  cpu time    1.2432: real time    1.2439
    MIXING:  cpu time    0.0456: real time    0.0456
    --------------------------------------------
      LOOP:  cpu time   55.0193: real time   55.0888

 eigenvalue-minimisations  :  1460
 total energy-change (2. order) :-0.5693730E+02  (-0.3034057E+01)
 number of electron     440.0001291 magnetization      65.7908625
 augmentation part      281.6149121 magnetization      43.8620445

 Broyden mixing:
  rms(total) = 0.11096E+01    rms(broyden)= 0.11093E+01
  rms(prec ) = 0.11250E+01
  weight for this iteration     100.00

 eigenvalues of (default mixing * dielectric matrix)
  average eigenvalue GAMMA=   1.4781
  5.4651  1.9716  1.0646  0.8469  0.8469  0.4082  0.6578  0.5634

 Free energy of the ion-electron system (eV)
  ---------------------------------------------------
  alpha Z        PSCENC =        52.64847221
  Ewald energy   TEWEN  =    178590.39637212
  -Hartree energ DENC   =   -229170.79108923
  -exchange      EXHF   =         0.00000000
  -V(xc)+E(xc)   XCENC  =      1893.65947521
  PAW double counting   =     52334.04861076   -56650.05393521
  entropy T*S    EENTRO =        -0.00000000
  eigenvalues    EBANDS =     -2659.04048846
  atomic energy  EATOM  =     55637.42338631
  Solvation  Ediel_sol  =         0.00000000
  ---------------------------------------------------
  free energy    TOTEN  =        28.29080372 eV

  energy without entropy =       28.29080372  energy(sigma->0) =       28.29080372


--------------------------------------------------------------------------------------------------------




----------------------------------------- Iteration    1(  21)  ---------------------------------------


    POTLOK:  cpu time    1.1097: real time    1.1110
    SETDIJ:  cpu time    0.0208: real time    0.0211
    EDDIAG:  cpu time    3.7064: real time    3.7111
  RMM-DIIS:  cpu time   46.3811: real time   46.9590
    ORTHCH:  cpu time    0.3648: real time    0.3655
       DOS:  cpu time    0.0002: real time    0.0002
    CHARGE:  cpu time    1.2689: real time    1.2698
    MIXING:  cpu time    0.0503: real time    0.0503
    --------------------------------------------
      LOOP:  cpu time   52.9059: real time   53.4942

 eigenvalue-minimisations  :  1460
 total energy-change (2. order) :-0.5313003E+02  (-0.4215883E+01)
 number of electron     440.0001285 magnetization      55.5617010
 augmentation part      281.0169002 magnetization      40.0494427

 Broyden mixing:
  rms(total) = 0.83181E+00    rms(broyden)= 0.83075E+00
  rms(prec ) = 0.84861E+00
  weight for this iteration     100.00

 eigenvalues of (default mixing * dielectric matrix)
  average eigenvalue GAMMA=   1.5142
  6.3408  2.2015  1.1940  0.8527  0.8527  0.6475  0.6475  0.4052  0.4861

 Free energy of the ion-electron system (eV)
  ---------------------------------------------------
  alpha Z        PSCENC =        52.64847221
  Ewald energy   TEWEN  =    178590.39637212
  -Hartree energ DENC   =   -229222.67845201
  -exchange      EXHF   =         0.00000000
  -V(xc)+E(xc)   XCENC  =      1854.04535793
  PAW double counting   =     52128.23183091   -56438.23629208
  entropy T*S    EENTRO =         0.00000000
  eigenvalues    EBANDS =     -2626.66990239
  atomic energy  EATOM  =     55637.42338631
  Solvation  Ediel_sol  =         0.00000000
  ---------------------------------------------------
  free energy    TOTEN  =       -24.83922699 eV

  energy without entropy =      -24.83922699  energy(sigma->0) =      -24.83922699


--------------------------------------------------------------------------------------------------------




----------------------------------------- Iteration    1(  22)  ---------------------------------------


    POTLOK:  cpu time    1.0978: real time    1.1073
    SETDIJ:  cpu time    0.0205: real time    0.0209
    EDDIAG:  cpu time    3.7188: real time    3.7217
  RMM-DIIS:  cpu time   47.9902: real time   48.0308
    ORTHCH:  cpu time    0.3575: real time    0.3578
       DOS:  cpu time    0.0001: real time    0.0001
    CHARGE:  cpu time    1.2573: real time    1.2579
    MIXING:  cpu time    0.0561: real time    0.0561
    --------------------------------------------
      LOOP:  cpu time   54.5024: real time   54.5594

 eigenvalue-minimisations  :  1461
 total energy-change (2. order) :-0.2178968E+02  (-0.2503213E+01)
 number of electron     440.0001276 magnetization      44.9025442
 augmentation part      279.8718729 magnetization      33.6089570

 Broyden mixing:
  rms(total) = 0.79957E+00    rms(broyden)= 0.79882E+00
  rms(prec ) = 0.81617E+00
  weight for this iteration     100.00

 eigenvalues of (default mixing * dielectric matrix)
  average eigenvalue GAMMA=   1.5725
  7.2449  2.4861  1.3223  0.9060  0.9060  0.6941  0.6941  0.6072  0.4083  0.4565

 Free energy of the ion-electron system (eV)
  ---------------------------------------------------
  alpha Z        PSCENC =        52.64847221
  Ewald energy   TEWEN  =    178590.39637212
  -Hartree energ DENC   =   -229299.75422022
  -exchange      EXHF   =         0.00000000
  -V(xc)+E(xc)   XCENC  =      1840.10631599
  PAW double counting   =     52155.75367557   -56470.35184713
  entropy T*S    EENTRO =         0.00000000
  eigenvalues    EBANDS =     -2552.85105999
  atomic energy  EATOM  =     55637.42338631
  Solvation  Ediel_sol  =         0.00000000
  ---------------------------------------------------
  free energy    TOTEN  =       -46.62890513 eV

  energy without entropy =      -46.62890513  energy(sigma->0) =      -46.62890513


--------------------------------------------------------------------------------------------------------




----------------------------------------- Iteration    1(  23)  ---------------------------------------


    POTLOK:  cpu time    1.1065: real time    1.1081
    SETDIJ:  cpu time    0.0213: real time    0.0217
    EDDIAG:  cpu time    3.7034: real time    3.7062
  RMM-DIIS:  cpu time   47.2114: real time   47.2730
    ORTHCH:  cpu time    0.3653: real time    0.3657
       DOS:  cpu time    0.0002: real time    0.0002
    CHARGE:  cpu time    1.2676: real time    1.2681
    MIXING:  cpu time    0.0611: real time    0.0611
    --------------------------------------------
      LOOP:  cpu time   53.7404: real time   53.8106

 eigenvalue-minimisations  :  1459
 total energy-change (2. order) :-0.1917078E+02  (-0.2257910E+01)
 number of electron     440.0001274 magnetization      36.4990536
 augmentation part      280.1388548 magnetization      27.1592301

 Broyden mixing:
  rms(total) = 0.69895E+00    rms(broyden)= 0.69883E+00
  rms(prec ) = 0.71511E+00
  weight for this iteration     100.00

 eigenvalues of (default mixing * dielectric matrix)
  average eigenvalue GAMMA=   1.6334
  8.1266  2.9902  1.0813  1.0813  0.9348  0.8085  0.8085  0.7067  0.5650  0.4043
  0.4609

 Free energy of the ion-electron system (eV)
  ---------------------------------------------------
  alpha Z        PSCENC =        52.64847221
  Ewald energy   TEWEN  =    178590.39637212
  -Hartree energ DENC   =   -229310.69086275
  -exchange      EXHF   =         0.00000000
  -V(xc)+E(xc)   XCENC  =      1824.84649322
  PAW double counting   =     52143.86988872   -56450.18702779
  entropy T*S    EENTRO =         0.00000000
  eigenvalues    EBANDS =     -2554.10641077
  atomic energy  EATOM  =     55637.42338631
  Solvation  Ediel_sol  =         0.00000000
  ---------------------------------------------------
  free energy    TOTEN  =       -65.79968873 eV

  energy without entropy =      -65.79968873  energy(sigma->0) =      -65.79968873


--------------------------------------------------------------------------------------------------------




----------------------------------------- Iteration    1(  24)  ---------------------------------------


    POTLOK:  cpu time    1.1114: real time    1.1126
    SETDIJ:  cpu time    0.0208: real time    0.0212
    EDDIAG:  cpu time    3.7071: real time    3.7107
  RMM-DIIS:  cpu time   47.4316: real time   47.5108
    ORTHCH:  cpu time    0.3657: real time    0.3658
       DOS:  cpu time    0.0002: real time    0.0002
    CHARGE:  cpu time    1.2407: real time    1.2416
    MIXING:  cpu time    0.0688: real time    0.0688
    --------------------------------------------
      LOOP:  cpu time   53.9500: real time   54.0381

 eigenvalue-minimisations  :  1457
 total energy-change (2. order) :-0.1888676E+02  (-0.2139601E+01)
 number of electron     440.0001302 magnetization      28.6718988
 augmentation part      282.5797395 magnetization      25.1038713

 Broyden mixing:
  rms(total) = 0.45562E+00    rms(broyden)= 0.45497E+00
  rms(prec ) = 0.46984E+00
  weight for this iteration     100.00

 eigenvalues of (default mixing * dielectric matrix)
  average eigenvalue GAMMA=   1.6476
  8.8570  3.1587  1.2559  1.2559  0.8807  0.8807  0.7677  0.7677  0.5408  0.5408
  0.4061  0.4598

 Free energy of the ion-electron system (eV)
  ---------------------------------------------------
  alpha Z        PSCENC =        52.64847221
  Ewald energy   TEWEN  =    178590.39637212
  -Hartree energ DENC   =   -229205.94629198
  -exchange      EXHF   =         0.00000000
  -V(xc)+E(xc)   XCENC  =      1805.26614802
  PAW double counting   =     52009.57059772   -56289.18344582
  entropy T*S    EENTRO =        -0.00000000
  eigenvalues    EBANDS =     -2684.86169014
  atomic energy  EATOM  =     55637.42338631
  Solvation  Ediel_sol  =         0.00000000
  ---------------------------------------------------
  free energy    TOTEN  =       -84.68645155 eV

  energy without entropy =      -84.68645155  energy(sigma->0) =      -84.68645155


--------------------------------------------------------------------------------------------------------




----------------------------------------- Iteration    1(  25)  ---------------------------------------


    POTLOK:  cpu time    1.1185: real time    1.1194
    SETDIJ:  cpu time    0.0206: real time    0.0208
    EDDIAG:  cpu time    3.6989: real time    3.7022
  RMM-DIIS:  cpu time   46.8370: real time   46.8687
    ORTHCH:  cpu time    0.3689: real time    0.3692
       DOS:  cpu time    0.0002: real time    0.0002
    CHARGE:  cpu time    1.2517: real time    1.2568
    MIXING:  cpu time    0.0981: real time    0.1000
    --------------------------------------------
      LOOP:  cpu time   53.3974: real time   53.4430

 eigenvalue-minimisations  :  1458
 total energy-change (2. order) :-0.9875190E+01  (-0.8315623E+00)
 number of electron     440.0001301 magnetization      24.5302951
 augmentation part      283.1331918 magnetization      22.1998671

 Broyden mixing:
  rms(total) = 0.46002E+00    rms(broyden)= 0.45991E+00
  rms(prec ) = 0.47224E+00
  weight for this iteration     100.00

 eigenvalues of (default mixing * dielectric matrix)
  average eigenvalue GAMMA=   1.6859
  9.5186  3.5438  1.3015  1.3015  0.9532  0.9532  0.8391  0.8391  0.6685  0.6685
  0.4042  0.4626  0.4626

 Free energy of the ion-electron system (eV)
  ---------------------------------------------------
  alpha Z        PSCENC =        52.64847221
  Ewald energy   TEWEN  =    178590.39637212
  -Hartree energ DENC   =   -229171.48360497
  -exchange      EXHF   =         0.00000000
  -V(xc)+E(xc)   XCENC  =      1796.27712307
  PAW double counting   =     51980.01922841   -56254.58430708
  entropy T*S    EENTRO =         0.00000000
  eigenvalues    EBANDS =     -2725.25831197
  atomic energy  EATOM  =     55637.42338631
  Solvation  Ediel_sol  =         0.00000000
  ---------------------------------------------------
  free energy    TOTEN  =       -94.56164190 eV

  energy without entropy =      -94.56164190  energy(sigma->0) =      -94.56164190


--------------------------------------------------------------------------------------------------------




----------------------------------------- Iteration    1(  26)  ---------------------------------------


    POTLOK:  cpu time    1.1075: real time    1.1085
    SETDIJ:  cpu time    0.0214: real time    0.0218
    EDDIAG:  cpu time    3.7063: real time    3.7095
  RMM-DIIS:  cpu time   46.0416: real time   46.0729
    ORTHCH:  cpu time    0.3642: real time    0.3643
       DOS:  cpu time    0.0001: real time    0.0001
    CHARGE:  cpu time    1.2699: real time    1.2707
    MIXING:  cpu time    0.0805: real time    0.0808
    --------------------------------------------
      LOOP:  cpu time   52.5952: real time   52.6349

 eigenvalue-minimisations  :  1458
 total energy-change (2. order) :-0.5943609E+01  (-0.3477313E+00)
 number of electron     440.0001294 magnetization      20.4846304
 augmentation part      281.7396292 magnetization      18.1231126

 Broyden mixing:
  rms(total) = 0.25073E+00    rms(broyden)= 0.25067E+00
  rms(prec ) = 0.25618E+00
  weight for this iteration     100.00

 eigenvalues of (default mixing * dielectric matrix)
  average eigenvalue GAMMA=   1.7148
 10.0761  3.9081  1.5127  1.5127  1.0630  0.9103  0.9103  0.7981  0.7981  0.6263
  0.5222  0.5222  0.4052  0.4424

 Free energy of the ion-electron system (eV)
  ---------------------------------------------------
  alpha Z        PSCENC =        52.64847221
  Ewald energy   TEWEN  =    178590.39637212
  -Hartree energ DENC   =   -229177.16292178
  -exchange      EXHF   =         0.00000000
  -V(xc)+E(xc)   XCENC  =      1793.18232965
  PAW double counting   =     51961.15218936   -56253.45488920
  entropy T*S    EENTRO =         0.00000000
  eigenvalues    EBANDS =     -2704.69018975
  atomic energy  EATOM  =     55637.42338631
  Solvation  Ediel_sol  =         0.00000000
  ---------------------------------------------------
  free energy    TOTEN  =      -100.50525108 eV

  energy without entropy =     -100.50525108  energy(sigma->0) =     -100.50525108


--------------------------------------------------------------------------------------------------------




----------------------------------------- Iteration    1(  27)  ---------------------------------------


    POTLOK:  cpu time    1.1087: real time    1.1093
    SETDIJ:  cpu time    0.0206: real time    0.0210
    EDDIAG:  cpu time    3.7051: real time    3.7080
  RMM-DIIS:  cpu time   47.3982: real time   47.7604
    ORTHCH:  cpu time    0.3708: real time    0.3709
       DOS:  cpu time    0.0002: real time    0.0002
    CHARGE:  cpu time    1.2609: real time    1.2619
    MIXING:  cpu time    0.0852: real time    0.0853
    --------------------------------------------
      LOOP:  cpu time   53.9533: real time   54.3231

 eigenvalue-minimisations  :  1456
 total energy-change (2. order) :-0.5508647E+01  (-0.1700840E+00)
 number of electron     440.0001291 magnetization      15.8500511
 augmentation part      281.2522094 magnetization      13.7246156

 Broyden mixing:
  rms(total) = 0.21767E+00    rms(broyden)= 0.21764E+00
  rms(prec ) = 0.22346E+00
  weight for this iteration     100.00

 eigenvalues of (default mixing * dielectric matrix)
  average eigenvalue GAMMA=   1.7588
 10.4897  4.4518  1.7898  1.7898  1.1359  0.9952  0.9952  0.7793  0.7793  0.6521
  0.6521  0.5504  0.4051  0.4584  0.4584

 Free energy of the ion-electron system (eV)
  ---------------------------------------------------
  alpha Z        PSCENC =        52.64847221
  Ewald energy   TEWEN  =    178590.39637212
  -Hartree energ DENC   =   -229148.87811737
  -exchange      EXHF   =         0.00000000
  -V(xc)+E(xc)   XCENC  =      1788.62221228
  PAW double counting   =     51903.72256999   -56202.24869140
  entropy T*S    EENTRO =         0.00000000
  eigenvalues    EBANDS =     -2727.70010254
  atomic energy  EATOM  =     55637.42338631
  Solvation  Ediel_sol  =         0.00000000
  ---------------------------------------------------
  free energy    TOTEN  =      -106.01389840 eV

  energy without entropy =     -106.01389840  energy(sigma->0) =     -106.01389840


--------------------------------------------------------------------------------------------------------




----------------------------------------- Iteration    1(  28)  ---------------------------------------


    POTLOK:  cpu time    1.1078: real time    1.1090
    SETDIJ:  cpu time    0.0207: real time    0.0210
    EDDIAG:  cpu time    3.7079: real time    3.7111
  RMM-DIIS:  cpu time   46.8065: real time   46.8453
    ORTHCH:  cpu time    0.3677: real time    0.3680
       DOS:  cpu time    0.0002: real time    0.0002
    CHARGE:  cpu time    1.2706: real time    1.2712
    MIXING:  cpu time    0.0934: real time    0.0934
    --------------------------------------------
      LOOP:  cpu time   53.3784: real time   53.4255

 eigenvalue-minimisations  :  1456
 total energy-change (2. order) :-0.4528140E+01  (-0.5223568E-01)
 number of electron     440.0001292 magnetization      12.4900371
 augmentation part      281.5044412 magnetization      10.7047718

 Broyden mixing:
  rms(total) = 0.14757E+00    rms(broyden)= 0.14753E+00
  rms(prec ) = 0.15102E+00
  weight for this iteration     100.00

 eigenvalues of (default mixing * dielectric matrix)
  average eigenvalue GAMMA=   1.7707
 10.7103  4.8059  2.4765  1.4523  1.4523  0.9942  0.9942  0.7933  0.7933  0.7477
  0.7255  0.5568  0.4046  0.4829  0.4829  0.4584

 Free energy of the ion-electron system (eV)
  ---------------------------------------------------
  alpha Z        PSCENC =        52.64847221
  Ewald energy   TEWEN  =    178590.39637212
  -Hartree energ DENC   =   -229089.47797675
  -exchange      EXHF   =         0.00000000
  -V(xc)+E(xc)   XCENC  =      1783.36870263
  PAW double counting   =     51855.19658086   -56152.91996345
  entropy T*S    EENTRO =        -0.00000000
  eigenvalues    EBANDS =     -2787.17761235
  atomic energy  EATOM  =     55637.42338631
  Solvation  Ediel_sol  =         0.00000000
  ---------------------------------------------------
  free energy    TOTEN  =      -110.54203841 eV

  energy without entropy =     -110.54203841  energy(sigma->0) =     -110.54203841


--------------------------------------------------------------------------------------------------------




----------------------------------------- Iteration    1(  29)  ---------------------------------------


    POTLOK:  cpu time    1.1039: real time    1.1093
    SETDIJ:  cpu time    0.0206: real time    0.0209
    EDDIAG:  cpu time    3.7120: real time    3.7152
  RMM-DIIS:  cpu time   47.9009: real time   47.9656
    ORTHCH:  cpu time    0.3634: real time    0.3634
       DOS:  cpu time    0.0002: real time    0.0002
    CHARGE:  cpu time    1.2369: real time    1.2378
    MIXING:  cpu time    0.1041: real time    0.1045
    --------------------------------------------
      LOOP:  cpu time   54.4457: real time   54.5235

 eigenvalue-minimisations  :  1459
 total energy-change (2. order) :-0.2874570E+01  (-0.1064069E-01)
 number of electron     440.0001292 magnetization       9.9475778
 augmentation part      281.6636956 magnetization       8.2099957

 Broyden mixing:
  rms(total) = 0.10252E+00    rms(broyden)= 0.10250E+00
  rms(prec ) = 0.10460E+00
  weight for this iteration     100.00

 eigenvalues of (default mixing * dielectric matrix)
  average eigenvalue GAMMA=   1.8098
 11.0811  5.3704  2.8941  1.5610  1.5610  0.9820  0.9820  1.0071  0.7820  0.7820
  0.6766  0.6766  0.6172  0.4744  0.4744  0.4049  0.4397

 Free energy of the ion-electron system (eV)
  ---------------------------------------------------
  alpha Z        PSCENC =        52.64847221
  Ewald energy   TEWEN  =    178590.39637212
  -Hartree energ DENC   =   -229055.85887085
  -exchange      EXHF   =         0.00000000
  -V(xc)+E(xc)   XCENC  =      1780.00169707
  PAW double counting   =     51862.33644465   -56159.87357939
  entropy T*S    EENTRO =         0.00000000
  eigenvalues    EBANDS =     -2820.49053057
  atomic energy  EATOM  =     55637.42338631
  Solvation  Ediel_sol  =         0.00000000
  ---------------------------------------------------
  free energy    TOTEN  =      -113.41660844 eV

  energy without entropy =     -113.41660844  energy(sigma->0) =     -113.41660844


--------------------------------------------------------------------------------------------------------




----------------------------------------- Iteration    1(  30)  ---------------------------------------


    POTLOK:  cpu time    1.1142: real time    1.1155
    SETDIJ:  cpu time    0.0208: real time    0.0212
    EDDIAG:  cpu time    3.7091: real time    3.7120
  RMM-DIIS:  cpu time   51.0433: real time   51.1262
[...]
 21        0.449   0.216   9.235   9.900
 22        0.464   0.212   9.239   9.915
 23        0.455   0.208   9.243   9.905
 24        0.455   0.208   9.243   9.905
 25        0.443   0.267   9.219   9.929
 26        0.469   0.209   9.248   9.926
 27        0.438   0.264   9.222   9.924
 28        0.461   0.202   9.250   9.913
 29        0.438   0.264   9.222   9.924
 30        0.469   0.209   9.248   9.926
 31        0.443   0.267   9.219   9.929
 32        0.471   0.213   9.244   9.928
 33        0.446   0.265   9.218   9.929
 34        0.471   0.213   9.244   9.928
 35        0.448   0.260   9.213   9.921
 36        0.443   0.254   9.216   9.912
 37        0.448   0.260   9.213   9.921
 38        0.442   0.264   9.217   9.923
 39        0.442   0.264   9.217   9.923
 40        0.465   0.215   9.246   9.925
------------------------------------------------
tot       18.124  10.619 369.044 397.787
 


 magnetization (x)
 
# of ion     s       p       d       tot
----------------------------------------
  1        0.001   0.011   0.019   0.031
  2       -0.002   0.003   0.004   0.005
  3        0.002   0.005   0.012   0.020
  4        0.005   0.009   0.013   0.027
  5        0.005   0.009   0.013   0.027
  6        0.002   0.005   0.012   0.020
  7        0.002   0.005   0.012   0.019
  8        0.029   0.002   0.012   0.042
  9        0.028   0.002   0.012   0.043
 10        0.029   0.002   0.012   0.042
 11        0.029   0.002   0.014   0.046
 12        0.029   0.002   0.014   0.046
 13        0.000   0.005   0.042   0.048
 14        0.011   0.010   0.010   0.032
 15        0.010   0.006   0.008   0.024
 16        0.002   0.007   0.010   0.018
 17        0.004   0.007   0.009   0.020
 18        0.006   0.008   0.012   0.026
 19        0.006   0.008   0.012   0.026
 20        0.004   0.007   0.009   0.020
 21        0.002   0.007   0.010   0.018
 22        0.010   0.006   0.008   0.024
 23        0.006   0.006   0.011   0.023
 24        0.006   0.006   0.011   0.023
 25        0.002   0.007   0.014   0.023
 26       -0.001   0.006   0.005   0.009
 27        0.001   0.006   0.014   0.021
 28       -0.001   0.004   0.006   0.009
 29        0.001   0.006   0.014   0.021
 30       -0.001   0.006   0.005   0.009
 31        0.002   0.007   0.014   0.023
 32       -0.000   0.005   0.006   0.011
 33        0.001   0.009   0.012   0.022
 34       -0.000   0.005   0.006   0.011
 35        0.011   0.009   0.006   0.026
 36        0.011   0.008   0.007   0.026
 37        0.011   0.009   0.006   0.026
 38        0.005   0.012   0.009   0.026
 39        0.005   0.012   0.009   0.026
 40        0.001   0.017  -0.007   0.010
------------------------------------------------
tot        0.277   0.266   0.426   0.970
 
    CHARGE:  cpu time    1.2351: real time    1.2362
    FORLOC:  cpu time    0.1237: real time    0.1238
    FORNL :  cpu time   27.3299: real time   27.3457
    STRESS:  cpu time   81.6482: real time   81.7261
    FORCOR:  cpu time    1.1797: real time    1.1831
    FORHAR:  cpu time    0.2374: real time    0.2375
    MIXING:  cpu time    0.3736: real time    0.3737
    OFIELD:  cpu time    0.0001: real time    0.0001

  FORCE on cell =-STRESS in cart. coord.  units (eV):
  Direction    XX          YY          ZZ          XY          YZ          ZX
  --------------------------------------------------------------------------------------
  Alpha Z    52.64847    52.64847    52.64847
  Ewald   67798.53179 69357.30318 41434.48469    -0.00303    -0.06540  -965.79034
  Hartree 84160.15363 85623.38496 59213.94940    -0.00205    -0.06149  -933.32131
  E(xc)   -2567.97287 -2567.86317 -2569.76821    -0.00000    -0.00001    -0.02776
  Local  ************************************     0.00504     0.12688  1901.02718
  n-local  -923.94665  -923.66527  -932.73854    -0.00001    -0.00002    -0.14541
  augment  3764.98580  3763.67379  3770.20828     0.00002     0.00002    -0.83239
  Kinetic  3601.37367  3600.19298  3607.92785     0.00002     0.00002    -1.02595
  Fock        0.00000     0.00000     0.00000     0.00000     0.00000     0.00000
  -------------------------------------------------------------------------------------
  Total     -12.13227   -12.20889   -11.25366    -0.00001     0.00001    -0.11598
  in kB      -0.87459    -0.88012    -0.81126    -0.00000     0.00000    -0.00836
  external pressure =       -0.86 kB  Pullay stress =        0.00 kB


 VOLUME and BASIS-vectors are now :
 -----------------------------------------------------------------------------
  energy-cutoff  :      295.45
  volume of cell :    22225.24
      direct lattice vectors                 reciprocal lattice vectors
    28.115694195  0.000000000  0.000000000     0.035567324  0.000000000  0.000000000
     0.000000000 28.115694195  0.000000000     0.000000000  0.035567324  0.000000000
     0.000000000  0.000000000 28.115694195     0.000000000  0.000000000  0.035567324

  length of vectors
    28.115694195 28.115694195 28.115694195     0.035567324  0.035567324  0.035567324


 FORCES acting on ions
    electron-ion (+dipol)            ewald-force                    non-local-force                 convergence-correction
 -----------------------------------------------------------------------------------------------
   0.462E+02 -.231E-02 -.973E+03   -.462E+02 0.230E-02 0.972E+03   -.695E-02 0.765E-05 0.184E+01   -.611E-05 0.374E-05 -.435E-05
   -.276E+02 -.568E-02 -.241E+04   0.275E+02 0.565E-02 0.241E+04   0.923E-01 0.168E-04 0.859E+01   -.209E-05 -.914E-06 -.573E-05
   -.612E+03 0.120E+04 -.181E+04   0.611E+03 -.119E+04 0.181E+04   0.154E+01 -.223E+01 0.229E+01   -.665E-05 0.103E-05 -.708E-05
   0.768E+03 0.118E+04 -.175E+04   -.767E+03 -.118E+04 0.175E+04   -.136E+01 -.125E+01 0.187E+01   0.382E-06 0.962E-05 -.718E-05
   0.768E+03 -.118E+04 -.175E+04   -.767E+03 0.118E+04 0.175E+04   -.136E+01 0.125E+01 0.187E+01   0.597E-05 -.135E-04 -.168E-04
   -.612E+03 -.120E+04 -.181E+04   0.611E+03 0.119E+04 0.181E+04   0.154E+01 0.223E+01 0.229E+01   -.122E-04 -.761E-05 -.128E-04
   -.132E+04 -.454E-02 -.183E+04   0.132E+04 0.452E-02 0.182E+04   0.283E+01 0.134E-04 0.283E+01   -.411E-05 0.138E-05 -.108E-04
   0.359E+03 0.110E+04 -.586E+01   -.359E+03 -.110E+04 0.595E+01   -.511E+00 -.176E+01 -.899E-01   0.205E-05 0.304E-05 -.113E-04
   0.117E+04 -.505E-03 -.256E+02   -.117E+04 0.507E-03 0.255E+02   -.148E+01 -.148E-05 0.647E-01   -.897E-06 0.240E-05 -.120E-04
   0.359E+03 -.110E+04 -.586E+01   -.359E+03 0.110E+04 0.595E+01   -.511E+00 0.176E+01 -.899E-01   0.132E-05 -.397E-05 -.913E-05
   -.959E+03 -.691E+03 -.933E+02   0.958E+03 0.690E+03 0.932E+02   0.110E+01 0.813E+00 0.950E-01   -.330E-05 -.285E-05 -.628E-05
   -.959E+03 0.691E+03 -.933E+02   0.958E+03 -.690E+03 0.932E+02   0.110E+01 -.813E+00 0.950E-01   -.225E-05 0.176E-05 -.799E-05
   -.290E+02 0.198E-02 0.927E+03   0.288E+02 -.197E-02 -.925E+03   0.127E+00 -.337E-05 -.202E+01   -.191E-05 0.111E-05 -.848E-05
   0.135E+04 -.378E-02 -.186E+04   -.135E+04 0.378E-02 0.186E+04   -.151E+01 0.329E-06 0.313E+01   0.142E-04 -.256E-05 -.182E-04
   -.128E+04 0.182E+04 -.729E+03   0.127E+04 -.182E+04 0.725E+03   0.427E+01 -.447E+01 0.361E+01   -.341E-05 0.109E-05 -.145E-04
   -.494E+02 0.219E+04 -.803E+03   0.506E+02 -.219E+04 0.800E+03   -.126E+01 -.568E+01 0.272E+01   -.599E-06 -.613E-06 -.208E-05
   0.137E+04 0.183E+04 -.545E+03   -.136E+04 -.183E+04 0.542E+03   -.315E+01 -.563E+01 0.258E+01   0.232E-05 0.220E-05 -.149E-04
   0.206E+04 0.756E+03 -.765E+03   -.206E+04 -.756E+03 0.763E+03   -.490E+01 -.542E+00 0.267E+01   0.938E-05 0.260E-05 -.672E-05
   0.206E+04 -.756E+03 -.765E+03   -.206E+04 0.756E+03 0.763E+03   -.490E+01 0.542E+00 0.267E+01   0.133E-04 -.553E-05 -.972E-05
   0.137E+04 -.183E+04 -.545E+03   -.136E+04 0.183E+04 0.542E+03   -.315E+01 0.563E+01 0.258E+01   0.766E-05 -.104E-04 -.162E-04
   -.494E+02 -.219E+04 -.803E+03   0.506E+02 0.219E+04 0.800E+03   -.126E+01 0.568E+01 0.272E+01   -.293E-05 -.113E-04 -.534E-05
   -.128E+04 -.182E+04 -.729E+03   0.127E+04 0.182E+04 0.725E+03   0.427E+01 0.447E+01 0.361E+01   -.442E-05 -.717E-05 -.178E-04
   -.208E+04 -.652E+03 -.825E+03   0.208E+04 0.649E+03 0.822E+03   0.514E+01 0.296E+01 0.357E+01   -.729E-05 -.406E-05 -.126E-04
   -.208E+04 0.652E+03 -.825E+03   0.208E+04 -.649E+03 0.822E+03   0.514E+01 -.296E+01 0.357E+01   -.648E-05 0.164E-05 -.119E-04
   -.655E+03 0.193E+04 0.953E+03   0.654E+03 -.193E+04 -.950E+03   0.966E+00 -.270E+01 -.229E+01   -.178E-05 0.387E-05 0.155E-05
   0.612E+03 0.211E+04 0.905E+03   -.610E+03 -.210E+04 -.902E+03   -.175E+01 -.717E+01 -.316E+01   -.274E-05 0.377E-05 0.848E-05
   0.167E+04 0.116E+04 0.102E+04   -.167E+04 -.116E+04 -.101E+04   -.225E+01 -.199E+01 -.273E+01   0.631E-05 0.153E-05 0.615E-06
   0.227E+04 0.126E-02 0.738E+03   -.227E+04 -.125E-02 -.736E+03   -.856E+01 0.229E-05 -.233E+01   0.145E-04 -.232E-05 0.112E-04
   0.167E+04 -.116E+04 0.102E+04   -.167E+04 0.116E+04 -.101E+04   -.225E+01 0.199E+01 -.273E+01   0.115E-04 -.544E-05 0.572E-05
   0.612E+03 -.211E+04 0.905E+03   -.610E+03 0.210E+04 -.902E+03   -.175E+01 0.717E+01 -.316E+01   -.164E-05 -.125E-04 0.123E-04
   -.655E+03 -.193E+04 0.953E+03   0.654E+03 0.193E+04 -.950E+03   0.966E+00 0.270E+01 -.229E+01   -.441E-05 -.125E-04 0.461E-05
   -.182E+04 -.129E+04 0.811E+03   0.182E+04 0.128E+04 -.808E+03   0.588E+01 0.388E+01 -.368E+01   -.710E-05 -.426E-05 0.995E-05
   -.206E+04 0.251E-02 0.909E+03   0.206E+04 -.251E-02 -.908E+03   0.307E+01 -.889E-05 -.198E+01   -.992E-05 -.111E-05 0.840E-05
   -.182E+04 0.129E+04 0.811E+03   0.182E+04 -.128E+04 -.808E+03   0.588E+01 -.388E+01 -.368E+01   -.612E-05 0.888E-06 0.736E-05
   0.367E+03 0.120E+04 0.189E+04   -.366E+03 -.120E+04 -.189E+04   -.301E+00 -.132E+01 -.254E+01   0.204E-05 0.125E-04 0.121E-04
   0.129E+04 0.445E-02 0.188E+04   -.129E+04 -.445E-02 -.188E+04   -.139E+01 -.582E-05 -.294E+01   0.123E-04 -.157E-05 0.214E-04
   0.367E+03 -.120E+04 0.189E+04   -.366E+03 0.120E+04 -.189E+04   -.301E+00 0.132E+01 -.254E+01   0.344E-05 -.171E-04 0.196E-04
   -.108E+04 -.748E+03 0.185E+04   0.108E+04 0.747E+03 -.184E+04   0.148E+01 0.108E+01 -.262E+01   -.150E-04 -.967E-05 0.844E-05
   -.108E+04 0.748E+03 0.185E+04   0.108E+04 -.747E+03 -.184E+04   0.148E+01 -.108E+01 -.262E+01   -.127E-04 0.721E-05 0.556E-05
   -.370E+02 0.595E-02 0.244E+04   0.373E+02 -.592E-02 -.243E+04   -.303E+00 -.272E-04 -.909E+01   0.488E-05 -.206E-05 0.220E-05
 -----------------------------------------------------------------------------------------------
   -.259E+01 0.549E-04 -.259E+01   0.173E-11 0.227E-12 0.136E-11   0.267E+01 -.982E-05 0.267E+01   -.145E-04 -.777E-04 -.110E-03
 
 
 POSITION                                       TOTAL-FORCE (eV/Angst)
 -----------------------------------------------------------------------------------
     14.00005     14.05785     15.30891         0.001161      0.000003      0.003208
     13.96615     14.05785     17.60217        -0.021580     -0.000007      0.003260
     15.01448     11.96129     16.39087        -0.000779      0.005031     -0.002734
     12.62034     11.95803     16.41063         0.003070      0.013992     -0.004795
     12.62034     16.15768     16.41062         0.003075     -0.014008     -0.004829
     15.01448     16.15442     16.39086        -0.000784     -0.005040     -0.002786
     16.28643     14.05785     16.37044        -0.005505     -0.000001      0.002323
     13.38036     11.99958     14.04183         0.002086      0.010183     -0.001450
     11.95180     14.05785     14.06092         0.010220      0.000004      0.013025
     13.38036     16.11611     14.04182         0.002079     -0.010182     -0.001506
     15.81925     15.33849     14.13731        -0.007195     -0.001942     -0.000794
     15.81925     12.77720     14.13732        -0.007186      0.001934     -0.000757
     14.10121     14.05784     12.81182         0.002589      0.000003      0.003531
     11.57433     14.05785     16.75441        -0.013929     -0.000005      0.003310
     16.51478     10.59307     14.97795        -0.003743      0.005940      0.002271
     14.07604     10.00022     15.09581        -0.001673      0.011379      0.001324
     11.52388     10.51282     14.79528         0.007424      0.004826      0.001933
     10.35864     12.64196     15.12855        -0.000882     -0.002052      0.002706
     10.35864     15.47373     15.12855        -0.000886      0.002050      0.002752
     11.52388     17.60287     14.79527         0.007418     -0.004826      0.002017
     14.07604     18.11548     15.09579        -0.001647     -0.011374      0.001223
     16.51478     17.52263     14.97793        -0.003753     -0.005933      0.002228
     18.02043     15.31821     15.08849        -0.009200     -0.003110     -0.004609
     18.02043     12.79748     15.08850        -0.009202      0.003104     -0.004524
     15.20698     10.65735     12.89316         0.000539      0.007135     -0.002817
     12.83030      9.98088     12.82415         0.006174      0.007082     -0.004612
     11.18208     11.95861     12.82847         0.013898      0.004811      0.001111
      9.83334     14.05784     13.04040         0.006952      0.000004      0.004323
     11.18208     16.15708     12.82846         0.013901     -0.004804      0.001071
     12.83030     18.13481     12.82413         0.006159     -0.007086     -0.004680
     15.20698     17.45834     12.89314         0.000535     -0.007129     -0.002806
     17.56793     16.56178     12.97558        -0.005902     -0.000388     -0.001151
     17.67909     14.05784     12.95460        -0.018198     -0.000003     -0.005189
     17.56793     11.55391     12.97558        -0.005897      0.000394     -0.001169
     13.43662     11.98211     11.53136         0.008697      0.006266     -0.001003
     11.89747     14.05784     11.55625         0.015173     -0.000000      0.012589
     13.43661     16.13357     11.53135         0.008691     -0.006260     -0.001086
     15.89192     15.33528     11.61443        -0.002814     -0.001482     -0.004778
     15.89192     12.78041     11.61444        -0.002814      0.001490     -0.004728
     14.13595     14.05784     10.38637         0.003729      0.000002     -0.001403
 -----------------------------------------------------------------------------------
    total drift:                                0.086410     -0.000033      0.080381


--------------------------------------------------------------------------------------------------------



  FREE ENERGIE OF THE ION-ELECTRON SYSTEM (eV)
  ---------------------------------------------------
  free  energy   TOTEN  =      -118.68730371 eV

  energy  without entropy=     -118.68730371  energy(sigma->0) =     -118.68730371
 


--------------------------------------------------------------------------------------------------------


    POTLOK:  cpu time    1.1396: real time    1.1411


--------------------------------------------------------------------------------------------------------




--------------------------------------------------------------------------------------------------------


  
 reached required accuracy - stopping structural energy minimisation
     LOOP+:  cpu time 2904.2447: real time 2913.3680
    4ORBIT:  cpu time    0.0000: real time    0.0000
 


 total charge     
 
# of ion     s       p       d       tot
----------------------------------------
  1        0.444   0.421   9.198  10.063
  2        0.434   0.199   9.246   9.878
  3        0.444   0.262   9.223   9.929
  4        0.449   0.251   9.224   9.924
  5        0.449   0.251   9.224   9.924
  6        0.444   0.262   9.223   9.929
  7        0.444   0.266   9.221   9.932
  8        0.456   0.398   9.209  10.063
  9        0.464   0.409   9.210  10.083
 10        0.456   0.398   9.209  10.063
 11        0.451   0.398   9.206  10.055
 12        0.451   0.398   9.206  10.055
 13        0.441   0.418   9.197  10.055
 14        0.477   0.235   9.229   9.940
 15        0.464   0.212   9.239   9.915
 16        0.449   0.216   9.235   9.900
 17        0.473   0.221   9.237   9.931
 18        0.454   0.224   9.229   9.907
 19        0.454   0.224   9.229   9.907
 20        0.473   0.221   9.237   9.931
 21        0.449   0.216   9.235   9.900
 22        0.464   0.212   9.239   9.915
 23        0.455   0.208   9.243   9.905
 24        0.455   0.208   9.243   9.905
 25        0.443   0.267   9.219   9.929
 26        0.469   0.209   9.248   9.926
 27        0.438   0.264   9.222   9.924
 28        0.461   0.202   9.250   9.913
 29        0.438   0.264   9.222   9.924
 30        0.469   0.209   9.248   9.926
 31        0.443   0.267   9.219   9.929
 32        0.471   0.213   9.244   9.928
 33        0.446   0.265   9.218   9.929
 34        0.471   0.213   9.244   9.928
 35        0.448   0.260   9.213   9.921
 36        0.443   0.254   9.216   9.912
 37        0.448   0.260   9.213   9.921
 38        0.442   0.264   9.217   9.923
 39        0.442   0.264   9.217   9.923
 40        0.465   0.215   9.246   9.925
------------------------------------------------
tot       18.124  10.619 369.044 397.787
 


 magnetization (x)
 
# of ion     s       p       d       tot
----------------------------------------
  1        0.001   0.011   0.019   0.031
  2       -0.002   0.003   0.004   0.005
  3        0.002   0.005   0.012   0.020
  4        0.005   0.009   0.013   0.027
  5        0.005   0.009   0.013   0.027
  6        0.002   0.005   0.012   0.020
  7        0.002   0.005   0.012   0.019
  8        0.029   0.002   0.012   0.042
  9        0.028   0.002   0.012   0.043
 10        0.029   0.002   0.012   0.042
 11        0.029   0.002   0.014   0.046
 12        0.029   0.002   0.014   0.046
 13        0.000   0.005   0.042   0.048
 14        0.011   0.010   0.010   0.032
 15        0.010   0.006   0.008   0.024
 16        0.002   0.007   0.010   0.018
 17        0.004   0.007   0.009   0.020
 18        0.006   0.008   0.012   0.026
 19        0.006   0.008   0.012   0.026
 20        0.004   0.007   0.009   0.020
 21        0.002   0.007   0.010   0.018
 22        0.010   0.006   0.008   0.024
 23        0.006   0.006   0.011   0.023
 24        0.006   0.006   0.011   0.023
 25        0.002   0.007   0.014   0.023
 26       -0.001   0.006   0.005   0.009
 27        0.001   0.006   0.014   0.021
 28       -0.001   0.004   0.006   0.009
 29        0.001   0.006   0.014   0.021
 30       -0.001   0.006   0.005   0.009
 31        0.002   0.007   0.014   0.023
 32       -0.000   0.005   0.006   0.011
 33        0.001   0.009   0.012   0.022
 34       -0.000   0.005   0.006   0.011
 35        0.011   0.009   0.006   0.026
 36        0.011   0.008   0.007   0.026
 37        0.011   0.009   0.006   0.026
 38        0.005   0.012   0.009   0.026
 39        0.005   0.012   0.009   0.026
 40        0.001   0.017  -0.007   0.010
------------------------------------------------
tot        0.277   0.266   0.426   0.970
 

 total amount of memory used by VASP on root node   199753. kBytes
========================================================================

   base      :      30000. kBytes
   nonl-proj :      16743. kBytes
   fftplans  :      25670. kBytes
   grid      :      64857. kBytes
   one-center:        108. kBytes
   wavefun   :      62375. kBytes
 
  
  
 General timing and accounting informations for this job:
 ========================================================
  
                  Total CPU time used (sec):     2926.836
                            User time (sec):     2867.124
                          System time (sec):       59.712
                         Elapsed time (sec):     2936.197
  
                   Maximum memory used (kb):      319700.
                   Average memory used (kb):           0.
  
                          Minor page faults:      3433544
                          Major page faults:            0
                 Voluntary context switches:         2910
