 vasp.5.4.1 05Feb16 (build Apr 11 2020 03:28:46) gamma-only                     
  
 executed on           IFC91_ompi date 2022.05.04  16:45:17
 running on   24 total cores
 distrk:  each k-point on   24 cores,    1 groups
 distr:  one band on NCORES_PER_BAND=   6 cores,    4 groups


--------------------------------------------------------------------------------------------------------


 INCAR:
 POTCAR:    PAW_PBE Cu 22Jun2005                  
 POTCAR:    PAW_PBE Cu 22Jun2005                  
   VRHFIN =Cu: d10 p1                                                           
   LEXCH  = PE                                                                  
   EATOM  =  1390.9808 eV,  102.2342 Ry                                         
                                                                                
   TITEL  = PAW_PBE Cu 22Jun2005                                                
   LULTRA =        F    use ultrasoft PP ?                                      
   IUNSCR =        1    unscreen: 0-lin 1-nonlin 2-no                           
   RPACOR =    2.000    partial core radius                                     
   POMASS =   63.546; ZVAL   =   11.000    mass and valenz                      
   RCORE  =    2.300    outmost cutoff radius                                   
   RWIGS  =    2.200; RWIGS  =    1.164    wigner-seitz radius (au A)           
   ENMAX  =  295.446; ENMIN  =  221.585 eV                                      
   ICORE  =        3    local potential                                         
   LCOR   =        T    correct aug charges                                     
   LPAW   =        T    paw PP                                                  
   EAUG   =  586.980                                                            
   DEXC   =    0.000                                                            
   RMAX   =    2.344    core radius for proj-oper                               
   RAUG   =    1.300    factor for augmentation sphere                          
   RDEP   =    2.302    radius for radial grids                                 
   RDEPT  =    1.771    core radius for aug-charge                              
                                                                                
   Atomic configuration                                                         
    9 entries                                                                   
     n  l   j            E        occ.                                          
     1  0  0.50     -8850.2468   2.0000                                         
     2  0  0.50     -1062.3498   2.0000                                         
     2  1  1.50      -916.8226   6.0000                                         
     3  0  0.50      -114.6929   2.0000                                         
     3  1  1.50       -72.1325   6.0000                                         
     3  2  2.50        -5.0394  10.0000                                         
     4  0  0.50        -4.6097   1.0000                                         
     4  1  0.50        -4.0817   0.0000                                         
     4  3  2.50        -1.3606   0.0000                                         
   Description                                                                  
     l       E           TYP  RCUT    TYP  RCUT                                 
     2     -5.0393973     23  2.200                                             
     2     10.8846608     23  2.200                                             
     0     -4.6097109     23  2.200                                             
     0      8.2520465     23  2.200                                             
     1     -2.7211652     23  2.200                                             
     1     21.7055443     23  2.200                                             
     3      2.7211652     23  2.300                                             
  local pseudopotential read in
  partial core-charges read in
  partial kinetic energy density read in
  atomic valenz-charges read in
  non local Contribution for L=           2  read in
    real space projection operators read in
  non local Contribution for L=           2  read in
    real space projection operators read in
  non local Contribution for L=           0  read in
    real space projection operators read in
  non local Contribution for L=           0  read in
    real space projection operators read in
  non local Contribution for L=           1  read in
    real space projection operators read in
  non local Contribution for L=           1  read in
    real space projection operators read in
    PAW grid and wavefunctions read in
 
   number of l-projection  operators is LMAX  =           6
   number of lm-projection operators is LMMAX =          18
 

 ----------------------------------------------------------------------------- 
|                                                                             |
|  ADVICE TO THIS USER RUNNING 'VASP/VAMP'   (HEAR YOUR MASTER'S VOICE ...):  |
|                                                                             |
|      You have a (more or less) 'large supercell' and for larger cells       |
|      it might be more efficient to use real space projection opertators     |
|      So try LREAL= Auto  in the INCAR   file.                               |
|      Mind: At the moment your POTCAR file does not contain real space       |
|       projectors, and has to be modified,  BUT if you                       |
|      want to do an extremely  accurate calculation you might also keep the  |
|      reciprocal projection scheme          (i.e. LREAL=.FALSE.)             |
|                                                                             |
 ----------------------------------------------------------------------------- 

  PAW_PBE Cu 22Jun2005                  :
 energy of atom  1       EATOM=-1390.9808
 kinetic energy error for atom=    0.0452 (will be added to EATOM!!)
 
 
 POSCAR: Cu-41-7 <s> Cu </s>                     
  positions in direct lattice
  velocities in cartesian coordinates
 exchange correlation table for  LEXCH =        8
   RHO(1)=    0.500       N(1)  =     2000
   RHO(2)=  100.500       N(2)  =     4000
 


--------------------------------------------------------------------------------------------------------


 ion  position               nearest neighbor table
   1  0.474  0.444  0.415-   6 2.47  34 2.49  29 2.51  24 2.53   3 2.53   7 2.55   5 2.56   2 2.57

   2  0.473  0.445  0.500-  34 2.43  35 2.43  10 2.50  24 2.51  25 2.51   5 2.53  15 2.53  28 2.56
                            29 2.56   4 2.57  13 2.57   1 2.57
   3  0.554  0.469  0.415-   6 2.47  30 2.49  21 2.51   1 2.53   8 2.53  24 2.54   5 2.57   4 2.58

   4  0.554  0.470  0.500-  30 2.43  31 2.43  11 2.49  25 2.51  24 2.51  15 2.54   5 2.54  20 2.55
                            21 2.55   2 2.57   3 2.58  14 2.58
   5  0.496  0.513  0.458-   9 2.48   6 2.48  10 2.49  11 2.49   7 2.52  15 2.53   8 2.53   2 2.53
                             4 2.54   1 2.56   3 2.57  12 2.64
   6  0.496  0.512  0.377-   8 2.45   7 2.45   3 2.47   1 2.47   5 2.48   9 2.49
   7  0.425  0.512  0.415-   6 2.45  27 2.49  36 2.50  29 2.51   5 2.52   1 2.55   9 2.58  10 2.59

   8  0.554  0.553  0.415-   6 2.45  23 2.49  32 2.50  21 2.52   5 2.53   3 2.53   9 2.56  11 2.59

   9  0.475  0.580  0.417-  23 2.48   5 2.48  27 2.48   6 2.49  12 2.53   8 2.56   7 2.58
  10  0.425  0.511  0.500-  37 2.44  36 2.44  26 2.46  27 2.46   5 2.49  15 2.49   2 2.50  28 2.57
                            29 2.57  17 2.59   7 2.59  12 2.70
  11  0.554  0.552  0.500-  32 2.44  33 2.44  23 2.46  22 2.46  15 2.49   5 2.49   4 2.49  20 2.58
                            21 2.58   8 2.59  18 2.59  12 2.68
  12  0.473  0.586  0.500-  26 2.43  27 2.43  22 2.44  23 2.44   9 2.53  19 2.53   5 2.64  15 2.64
                            11 2.68  10 2.70
  13  0.474  0.444  0.585-  16 2.47  35 2.49  28 2.51  25 2.53  14 2.53  17 2.55  15 2.56   2 2.57

  14  0.554  0.469  0.585-  16 2.47  31 2.49  20 2.51  13 2.53  18 2.54  25 2.54  15 2.57   4 2.58

  15  0.496  0.513  0.542-  19 2.48  16 2.48  10 2.49  11 2.49  17 2.52   5 2.53  18 2.53   2 2.53
                             4 2.54  13 2.56  14 2.57  12 2.64
  16  0.496  0.512  0.623-  18 2.45  17 2.46  14 2.47  13 2.47  15 2.48  19 2.49
  17  0.425  0.512  0.585-  16 2.46  26 2.49  37 2.50  28 2.51  15 2.52  13 2.55  19 2.58  10 2.59

  18  0.554  0.553  0.585-  16 2.45  22 2.49  33 2.50  20 2.52  15 2.53  14 2.54  19 2.56  11 2.59

  19  0.475  0.580  0.583-  22 2.48  15 2.48  26 2.48  16 2.49  12 2.53  18 2.56  17 2.58
  20  0.613  0.510  0.545-  38 2.45  39 2.46  33 2.50  14 2.51  31 2.51  18 2.52   4 2.55  11 2.58
                            21 2.71
  21  0.613  0.510  0.455-  38 2.45  39 2.46  32 2.50   3 2.51  30 2.51   8 2.52   4 2.55  11 2.58
                            20 2.71
  22  0.533  0.619  0.541-  12 2.44  11 2.46  19 2.48  18 2.49  33 2.50  23 2.50
  23  0.533  0.619  0.459-  12 2.44  11 2.46   9 2.48   8 2.49  32 2.50  22 2.50
  24  0.531  0.402  0.459-  30 2.47  34 2.48  25 2.48   2 2.51   4 2.51   1 2.53   3 2.54
  25  0.531  0.402  0.541-  31 2.47  35 2.48  24 2.48   2 2.51   4 2.51  13 2.53  14 2.54
  26  0.404  0.578  0.541-  12 2.43  10 2.46  19 2.48  17 2.49  37 2.50  27 2.51
  27  0.404  0.578  0.459-  12 2.43  10 2.46   9 2.48   7 2.49  36 2.50  26 2.51
  28  0.402  0.443  0.545-  41 2.45  40 2.46  37 2.51  13 2.51  17 2.51  35 2.52   2 2.56  10 2.57
                            29 2.72
  29  0.402  0.443  0.455-  41 2.45  40 2.46  36 2.51   1 2.51   7 2.51  34 2.52   2 2.56  10 2.57
                            28 2.72
  30  0.608  0.428  0.460-   4 2.43  31 2.45  24 2.47  38 2.48   3 2.49  21 2.51
  31  0.609  0.428  0.540-   4 2.43  30 2.45  25 2.47  38 2.48  14 2.49  20 2.51
  32  0.611  0.592  0.459-  11 2.44  39 2.46  33 2.47  21 2.50   8 2.50  23 2.50
  33  0.611  0.592  0.541-  11 2.44  39 2.46  32 2.47  20 2.50  18 2.50  22 2.50
  34  0.453  0.378  0.460-   2 2.43  35 2.45  24 2.48  41 2.48   1 2.49  29 2.52
  35  0.453  0.378  0.540-   2 2.43  34 2.45  25 2.48  41 2.48  13 2.49  28 2.52
  36  0.356  0.511  0.459-  10 2.44  40 2.46  37 2.46   7 2.50  27 2.50  29 2.51
  37  0.356  0.511  0.541-  10 2.44  40 2.46  36 2.46  17 2.50  26 2.50  28 2.51
  38  0.666  0.469  0.500-  21 2.45  20 2.45  39 2.45  31 2.48  30 2.48
  39  0.667  0.550  0.500-  38 2.45  20 2.46  21 2.46  32 2.46  33 2.46
  40  0.335  0.444  0.500-  29 2.46  28 2.46  37 2.46  36 2.46  41 2.46
  41  0.382  0.379  0.500-  28 2.45  29 2.45  40 2.46  34 2.48  35 2.48
 
  LATTYP: Found a simple cubic cell.
 ALAT       =    30.3670096543
  
  Lattice vectors:
  
 A1 = (  30.3670096543,   0.0000000000,   0.0000000000)
 A2 = (   0.0000000000,  30.3670096543,   0.0000000000)
 A3 = (   0.0000000000,   0.0000000000,  30.3670096543)


Analysis of symmetry for initial positions (statically):
=====================================================================
 Subroutine PRICEL returns:
 Original cell was already a primitive cell.
 

 Routine SETGRP: Setting up the symmetry group for a 
 simple cubic supercell.


 Subroutine GETGRP returns: Found  1 space group operations
 (whereof  1 operations were pure point group operations)
 out of a pool of 48 trial point group operations.


The static configuration has the point symmetry C_1 .


Analysis of symmetry for dynamics (positions and initial velocities):
=====================================================================
 Subroutine PRICEL returns:
 Original cell was already a primitive cell.
 

 Routine SETGRP: Setting up the symmetry group for a 
 simple cubic supercell.


 Subroutine GETGRP returns: Found  1 space group operations
 (whereof  1 operations were pure point group operations)
 out of a pool of 48 trial point group operations.


The dynamic configuration has the point symmetry C_1 .


Analysis of structural, dynamic, and magnetic symmetry:
=====================================================================
 Subroutine PRICEL returns:
 Original cell was already a primitive cell.
 

 Routine SETGRP: Setting up the symmetry group for a 
 simple cubic supercell.


 Subroutine GETGRP returns: Found  1 space group operations
 (whereof  1 operations were pure point group operations)
 out of a pool of 48 trial point group operations.


The magnetic configuration has the point symmetry C_1 .


 Subroutine INISYM returns: Found  1 space group operations
 (whereof  1 operations are pure point group operations),
 and found     1 'primitive' translations

 
 
 KPOINTS: Gamma-point only                        
  k-points in reciprocal lattice
Space group operators:
 irot       det(A)        alpha          n_x          n_y          n_z        tau_x        tau_y        tau_z
    1     1.000000     0.000001     1.000000     0.000000     0.000000     0.000000     0.000000     0.000000


--------------------------------------------------------------------------------------------------------




 Dimension of arrays:
   k-points           NKPTS =      1   k-points in BZ     NKDIM =      1   number of bands    NBANDS=    312
   number of dos      NEDOS =    301   number of ions     NIONS =     41
   non local maximal  LDIM  =      6   non local SUM 2l+1 LMDIM =     18
   total plane-waves  NPLWV = ******
   max r-space proj   IRMAX =      1   max aug-charges    IRDMAX=   2368
   dimension x,y,z NGX =   128 NGY =  128 NGZ =  128
   dimension x,y,z NGXF=   256 NGYF=  256 NGZF=  256
   support grid    NGXF=   256 NGYF=  256 NGZF=  256
   ions per type =              41
 NGX,Y,Z   is equivalent  to a cutoff of   7.01,  7.01,  7.01 a.u.
 NGXF,Y,Z  is equivalent  to a cutoff of  14.01, 14.01, 14.01 a.u.


 I would recommend the setting:
   dimension x,y,z NGX =   128 NGY =  128 NGZ =  128
 SYSTEM =  unknown system                          
 POSCAR =  Cu-41-7 <s> Cu </s>                     

 Startparameter for this run:
   NWRITE =      2    write-flag & timer
   PREC   = normal    normal or accurate (medium, high low for compatibility)
   ISTART =      0    job   : 0-new  1-cont  2-samecut
   ICHARG =      2    charge: 1-file 2-atom 10-const
   ISPIN  =      2    spin polarized calculation?
   LNONCOLLINEAR =      F non collinear calculations
   LSORBIT =      F    spin-orbit coupling
   INIWAV =      1    electr: 0-lowe 1-rand  2-diag
   LASPH  =      F    aspherical Exc in radial PAW
   METAGGA=      F    non-selfconsistent MetaGGA calc.

 Electronic Relaxation 1
   ENCUT  =  295.4 eV  21.71 Ry    4.66 a.u.  42.56 42.56 42.56*2*pi/ulx,y,z
   ENINI  =  295.4     initial cutoff
   ENAUG  =  587.0 eV  augmentation charge cutoff
   NELM   =     60;   NELMIN=  2; NELMDL=-12     # of ELM steps 
   EDIFF  = 0.1E-05   stopping-criterion for ELM
   LREAL  =      F    real-space projection
   NLSPLINE    = F    spline interpolate recip. space projectors
   LCOMPAT=      F    compatible to vasp.4.4
   GGA_COMPAT  = T    GGA compatible to vasp.4.4-vasp.4.6
   LMAXPAW     = -100 max onsite density
   LMAXMIX     =    2 max onsite mixed and CHGCAR
   VOSKOWN=      0    Vosko Wilk Nusair interpolation
   ROPT   =    0.00000
 Ionic relaxation
   EDIFFG = -.3E-01   stopping-criterion for IOM
   NSW    =   1000    number of steps for IOM
   NBLOCK =      1;   KBLOCK =   1000    inner block; outer block 
   IBRION =      2    ionic relax: 0-MD 1-quasi-New 2-CG
   NFREE  =      1    steps in history (QN), initial steepest desc. (CG)
   ISIF   =      2    stress and relaxation
   IWAVPR =     11    prediction:  0-non 1-charg 2-wave 3-comb
   ISYM   =      2    0-nonsym 1-usesym 2-fastsym
   LCORR  =      T    Harris-Foulkes like correction to forces

   POTIM  = 0.5000    time-step for ionic-motion
   TEIN   =    0.0    initial temperature
   TEBEG  =    0.0;   TEEND  =   0.0 temperature during run
   SMASS  =  -3.00    Nose mass-parameter (am)
   estimated Nose-frequenzy (Omega)   =  0.10E-29 period in steps =****** mass=  -0.211E-25a.u.
   SCALEE = 1.0000    scale energy and forces
   NPACO  =    256;   APACO  = 16.0  distance and # of slots for P.C.
   PSTRESS=    0.0 pullay stress

  Mass of Ions in am
   POMASS =  63.55
  Ionic Valenz
   ZVAL   =  11.00
  Atomic Wigner-Seitz radii
   RWIGS  =  -1.00
  virtual crystal weights 
   VCA    =   1.00
   NELECT =     451.0000    total number of electrons
   NUPDOWN=      -1.0000    fix difference up-down

 DOS related values:
   EMIN   =  10.00;   EMAX   =-10.00  energy-range for DOS
   EFERMI =   0.00
   ISMEAR =     0;   SIGMA  =   0.00  broadening in eV -4-tet -1-fermi 0-gaus

 Electronic relaxation 2 (details)
   IALGO  =     48    algorithm
   LDIAG  =      T    sub-space diagonalisation (order eigenvalues)
   LSUBROT=      F    optimize rotation matrix (better conditioning)
   TURBO    =      0    0=normal 1=particle mesh
   IRESTART =      0    0=no restart 2=restart with 2 vectors
   NREBOOT  =      0    no. of reboots
   NMIN     =      0    reboot dimension
   EREF     =   0.00    reference energy to select bands
   IMIX   =      4    mixing-type and parameters
     AMIX     =   0.40;   BMIX     =  1.00
     AMIX_MAG =   1.60;   BMIX_MAG =  1.00
     AMIN     =   0.10
     WC   =   100.;   INIMIX=   1;  MIXPRE=   1;  MAXMIX= -45

 Intra band minimization:
   WEIMIN = 0.0010     energy-eigenvalue tresh-hold
   EBREAK =  0.80E-09  absolut break condition
   DEPER  =   0.30     relativ break condition  

   TIME   =   0.40     timestep for ELM

  volume/ion in A,a.u.               =     683.00      4609.13
  Fermi-wavevector in a.u.,A,eV,Ry     =   0.413427  0.781263  2.325528  0.170921
  Thomas-Fermi vector in A             =   1.371049
 
 Write flags
   LWAVE  =      F    write WAVECAR
   LCHARG =      F    write CHGCAR
   LVTOT  =      F    write LOCPOT, total local potential
   LVHAR  =      F    write LOCPOT, Hartree potential only
   LELF   =      F    write electronic localiz. function (ELF)
   LORBIT =     11    0 simple, 1 ext, 2 COOP (PROOUT)


 Dipole corrections
   LMONO  =      F    monopole corrections only (constant potential shift)
   LDIPOL =      F    correct potential (dipole corrections)
   IDIPOL =      0    1-x, 2-y, 3-z, 4-all directions 
   EPSILON=  1.0000000 bulk dielectric constant

 Exchange correlation treatment:
   GGA     =    PE    GGA type
   LEXCH   =     8    internal setting for exchange type
   VOSKOWN=      0    Vosko Wilk Nusair interpolation
   LHFCALC =     F    Hartree Fock is set to
   LHFONE  =     F    Hartree Fock one center treatment
   AEXX    =    0.0000 exact exchange contribution

 Linear response parameters
   LEPSILON=     F    determine dielectric tensor
   LRPA    =     F    only Hartree local field effects (RPA)
   LNABLA  =     F    use nabla operator in PAW spheres
   LVEL    =     F    velocity operator in full k-point grid
   LINTERFAST=   F  fast interpolation
   KINTER  =     0    interpolate to denser k-point grid
   CSHIFT  =0.1000    complex shift for real part using Kramers Kronig
   OMEGAMAX=  -1.0    maximum frequency
   DEG_THRESHOLD= 0.2000000E-02 threshold for treating states as degnerate
   RTIME   =    0.100 relaxation time in fs

 Orbital magnetization related:
   ORBITALMAG=     F  switch on orbital magnetization
   LCHIMAG   =     F  perturbation theory with respect to B field
   DQ        =  0.001000  dq finite difference perturbation B field



--------------------------------------------------------------------------------------------------------


 conjugate gradient relaxation of ions
 charge density and potential will be updated during run
 spin polarized calculation
 RMM-DIIS sequential band-by-band
 perform sub-space diagonalisation
    before iterative eigenvector-optimisation
 modified Broyden-mixing scheme, WC =      100.0
 initial mixing is a Kerker type mixing with AMIX =  0.4000 and BMIX =      1.0000
 Hartree-type preconditioning will be used
 using additional bands           86
 reciprocal scheme for non local part
 use partial core corrections
 calculate Harris-corrections to forces 
   (improved forces if not selfconsistent)
 use gradient corrections 
 use of overlap-Matrix (Vanderbilt PP)
 Gauss-broadening in eV      SIGMA  =   0.00


--------------------------------------------------------------------------------------------------------


  energy-cutoff  :      295.45
  volume of cell :    28003.10
      direct lattice vectors                 reciprocal lattice vectors
    30.367009654  0.000000000  0.000000000     0.032930473  0.000000000  0.000000000
     0.000000000 30.367009654  0.000000000     0.000000000  0.032930473  0.000000000
     0.000000000  0.000000000 30.367009654     0.000000000  0.000000000  0.032930473

  length of vectors
    30.367009654 30.367009654 30.367009654     0.032930473  0.032930473  0.032930473


 
 k-points in units of 2pi/SCALE and weight: Gamma-point only                        
   0.00000000  0.00000000  0.00000000       1.000
 
 k-points in reciprocal lattice and weights: Gamma-point only                        
   0.00000000  0.00000000  0.00000000       1.000
 
 position of ions in fractional coordinates (direct lattice) 
   0.47431149  0.44396026  0.41523722
   0.47324094  0.44452331  0.49999970
   0.55354009  0.46948014  0.41506757
   0.55385891  0.47035129  0.49998286
   0.49550281  0.51322235  0.45840628
   0.49600982  0.51228230  0.37660686
   0.42478684  0.51164600  0.41479270
   0.55439090  0.55295036  0.41484662
   0.47460436  0.58040476  0.41687727
   0.42491552  0.51124875  0.50001539
   0.55429334  0.55249754  0.49998833
   0.47261511  0.58617610  0.50001488
   0.47434750  0.44394479  0.58475797
   0.55358226  0.46945418  0.58491208
   0.49554173  0.51321262  0.54159885
   0.49612632  0.51225208  0.62340030
   0.42484312  0.51162161  0.58523560
   0.55443276  0.55294724  0.58514254
   0.47463348  0.58037866  0.58315371
   0.61283845  0.51037689  0.54467495
   0.61283730  0.51037788  0.45528663
   0.53317040  0.61891456  0.54122702
   0.53316518  0.61892025  0.45878007
   0.53127969  0.40204906  0.45907480
   0.53130416  0.40204333  0.54089006
   0.40447895  0.57771858  0.54136006
   0.40446207  0.57772722  0.45868670
   0.40193283  0.44313025  0.54472910
   0.40190945  0.44314406  0.45528943
   0.60848612  0.42805624  0.45958171
   0.60851094  0.42805758  0.54037936
   0.61112905  0.59242550  0.45936197
   0.61113502  0.59243072  0.54061379
   0.45329675  0.37821848  0.45966815
   0.45331838  0.37820779  0.54032518
   0.35550526  0.51133907  0.45943878
   0.35553978  0.51132375  0.54060804
   0.66623461  0.46949879  0.49997524
   0.66715682  0.55026098  0.49998448
   0.33455546  0.44442752  0.50001986
   0.38217601  0.37879717  0.50000787
 
 position of ions in cartesian coordinates  (Angst):
  14.40342172 13.48174540 12.60951270
  14.37091231 13.49884366 15.18349583
  16.80935730 14.25670801 12.60436095
  16.81903891 14.28316209 15.18298442
  15.04693871 15.58502819 13.92042803
  15.06233504 15.55648157 11.43642428
  12.89950599 15.53715889 12.59601394
  16.83519392 16.79144891 12.59765118
  14.41231522 17.62515683 12.65931596
  12.90341380 15.52509574 15.18397205
  16.83223131 16.77769811 15.18315036
  14.35190758 17.80041540 15.18395669
  14.40451497 13.48127585 17.75735103
  16.81063780 14.25591962 17.76203076
  15.04812040 15.58473267 16.44673763
  15.06587274 15.55556382 18.93080280
  12.90121528 15.53641843 17.77185512
  16.83646505 16.79135412 17.76902930
  14.41319945 17.62436423 17.70863433
  18.61007109 15.49862008 16.54014949
  18.61003615 15.49864990 13.82569350
  16.19079075 18.79458429 16.43544623
  16.19063210 18.79475723 13.93177873
  16.13337557 12.20902759 13.94072885
  16.13411862 12.20885379 16.42521373
  12.28281630 17.54358572 16.43948623
  12.28230367 17.54384795 13.92894335
  12.20549800 13.45654045 16.54179390
  12.20478817 13.45695995 13.82577857
  18.47790373 12.99878800 13.95612234
  18.47865746 12.99882852 16.40970519
  18.55816175 17.99019095 13.94944947
  18.55834319 17.99034951 16.41682424
  13.76526671 11.48536433 13.95874711
  13.76592365 11.48503953 16.40805990
  10.79563164 15.52783861 13.95178182
  10.79668004 15.52737327 16.41664955
  20.23155270 14.25727423 15.18275298
  20.25955760 16.70978039 15.18303364
  10.15944902 13.49593465 15.18410779
  11.60554252 11.50293743 15.18374395
 


--------------------------------------------------------------------------------------------------------


 use parallel FFT for wavefunctions z direction half grid
 k-point  1 :   0.0000 0.0000 0.0000  plane waves:  161623

 maximum and minimum number of plane-waves per node :     26946    26927

 maximum number of plane-waves:    161623
 maximum index in each direction: 
   IXMAX=   42   IYMAX=   42   IZMAX=   42
   IXMIN=  -42   IYMIN=  -42   IZMIN=    0

 WARNING: aliasing errors must be expected set NGX to 170 to avoid them
 WARNING: aliasing errors must be expected set NGY to 170 to avoid them
 WARNING: aliasing errors must be expected set NGZ to 170 to avoid them
 aliasing errors are usually negligible using standard VASP settings
 and one can safely disregard these warnings

 parallel 3D FFT for wavefunctions:
    minimum data exchange during FFTs selected (reduces bandwidth)
 parallel 3D FFT for charge:
    minimum data exchange during FFTs selected (reduces bandwidth)


 total amount of memory used by VASP on root node   232166. kBytes
========================================================================

   base      :      30000. kBytes
   nonl-proj :      21545. kBytes
   fftplans  :      31986. kBytes
   grid      :      81145. kBytes
   one-center:        108. kBytes
   wavefun   :      67382. kBytes
 
     INWAV:  cpu time    0.0000: real time    0.0000
 Broyden mixing: mesh for mixing (old mesh)
   NGX = 85   NGY = 85   NGZ = 85
  (NGX  =256   NGY  =256   NGZ  =256)
  gives a total of 614125 points

 initial charge density was supplied:
 charge density of overlapping atoms calculated
 number of electron     451.0000000 magnetization      82.0000000
 keeping initial charge density in first step


--------------------------------------------------------------------------------------------------------


 Maximum index for augmentation-charges          194 (set IRDMAX)


--------------------------------------------------------------------------------------------------------


 First call to EWALD:  gamma=   0.058
 Maximum number of real-space cells 3x 3x 3
 Maximum number of reciprocal cells 3x 3x 3

 FEWALD executed in parallel
    FEWALD:  cpu time    0.0027: real time    0.0027


----------------------------------------- Iteration    1(   1)  ---------------------------------------


    POTLOK:  cpu time    1.5754: real time    1.5780
    SETDIJ:  cpu time    0.0221: real time    0.0225
    EDDIAG:  cpu time    3.9213: real time    3.9251
  RMM-DIIS:  cpu time   31.6367: real time   31.7148
    ORTHCH:  cpu time    0.3690: real time    0.3694
       DOS:  cpu time    0.0001: real time    0.0001
    --------------------------------------------
      LOOP:  cpu time   37.5284: real time   37.6158

 eigenvalue-minimisations  :   624
 total energy-change (2. order) : 0.4162729E+04  (-0.5493272E+04)
 number of electron     451.0000000 magnetization      82.0000000
 augmentation part      451.0000000 magnetization      82.0000000

 Free energy of the ion-electron system (eV)
  ---------------------------------------------------
  alpha Z        PSCENC =        43.90094352
  Ewald energy   TEWEN  =    193027.36693602
  -Hartree energ DENC   =   -244874.06180388
  -exchange      EXHF   =         0.00000000
  -V(xc)+E(xc)   XCENC  =      1870.93544311
  PAW double counting   =     50338.52233409   -54675.03869097
  entropy T*S    EENTRO =         0.00000000
  eigenvalues    EBANDS =      1402.74533341
  atomic energy  EATOM  =     57028.35897097
  Solvation  Ediel_sol  =         0.00000000
  ---------------------------------------------------
  free energy    TOTEN  =      4162.72946626 eV

  energy without entropy =     4162.72946626  energy(sigma->0) =     4162.72946626


--------------------------------------------------------------------------------------------------------




----------------------------------------- Iteration    1(   2)  ---------------------------------------


    EDDIAG:  cpu time    3.9161: real time    3.9217
  RMM-DIIS:  cpu time   32.2615: real time   32.2910
    ORTHCH:  cpu time    0.3247: real time    0.3248
       DOS:  cpu time    0.0002: real time    0.0002
    --------------------------------------------
      LOOP:  cpu time   36.5055: real time   36.5438

 eigenvalue-minimisations  :   624
 total energy-change (2. order) :-0.1303351E+04  (-0.1417977E+04)
 number of electron     451.0000000 magnetization      82.0000000
 augmentation part      451.0000000 magnetization      82.0000000

 Free energy of the ion-electron system (eV)
  ---------------------------------------------------
  alpha Z        PSCENC =        43.90094352
  Ewald energy   TEWEN  =    193027.36693602
  -Hartree energ DENC   =   -244874.06180388
  -exchange      EXHF   =         0.00000000
  -V(xc)+E(xc)   XCENC  =      1870.93544311
  PAW double counting   =     50338.52233409   -54675.03869097
  entropy T*S    EENTRO =        -0.00000000
  eigenvalues    EBANDS =        99.39442098
  atomic energy  EATOM  =     57028.35897097
  Solvation  Ediel_sol  =         0.00000000
  ---------------------------------------------------
  free energy    TOTEN  =      2859.37855383 eV

  energy without entropy =     2859.37855383  energy(sigma->0) =     2859.37855383


--------------------------------------------------------------------------------------------------------




----------------------------------------- Iteration    1(   3)  ---------------------------------------


    EDDIAG:  cpu time    3.9268: real time    3.9305
  RMM-DIIS:  cpu time   31.5239: real time   31.5735
    ORTHCH:  cpu time    0.3213: real time    0.3218
       DOS:  cpu time    0.0002: real time    0.0002
    --------------------------------------------
      LOOP:  cpu time   35.7752: real time   35.8315

 eigenvalue-minimisations  :   624
 total energy-change (2. order) :-0.9222383E+03  (-0.1212117E+04)
 number of electron     451.0000000 magnetization      82.0000000
 augmentation part      451.0000000 magnetization      82.0000000

 Free energy of the ion-electron system (eV)
  ---------------------------------------------------
  alpha Z        PSCENC =        43.90094352
  Ewald energy   TEWEN  =    193027.36693602
  -Hartree energ DENC   =   -244874.06180388
  -exchange      EXHF   =         0.00000000
  -V(xc)+E(xc)   XCENC  =      1870.93544311
  PAW double counting   =     50338.52233409   -54675.03869097
  entropy T*S    EENTRO =        -0.00000000
  eigenvalues    EBANDS =      -822.84389709
  atomic energy  EATOM  =     57028.35897097
  Solvation  Ediel_sol  =         0.00000000
  ---------------------------------------------------
  free energy    TOTEN  =      1937.14023577 eV

  energy without entropy =     1937.14023577  energy(sigma->0) =     1937.14023577


--------------------------------------------------------------------------------------------------------




----------------------------------------- Iteration    1(   4)  ---------------------------------------


    EDDIAG:  cpu time    3.9240: real time    3.9292
  RMM-DIIS:  cpu time   31.6119: real time   31.6511
    ORTHCH:  cpu time    0.3414: real time    0.3418
       DOS:  cpu time    0.0002: real time    0.0002
    --------------------------------------------
      LOOP:  cpu time   35.8802: real time   35.9276

 eigenvalue-minimisations  :   624
 total energy-change (2. order) :-0.9352780E+03  (-0.9169317E+03)
 number of electron     451.0000000 magnetization      82.0000000
 augmentation part      451.0000000 magnetization      82.0000000

 Free energy of the ion-electron system (eV)
  ---------------------------------------------------
  alpha Z        PSCENC =        43.90094352
  Ewald energy   TEWEN  =    193027.36693602
  -Hartree energ DENC   =   -244874.06180388
  -exchange      EXHF   =         0.00000000
  -V(xc)+E(xc)   XCENC  =      1870.93544311
  PAW double counting   =     50338.52233409   -54675.03869097
  entropy T*S    EENTRO =         0.00000000
  eigenvalues    EBANDS =     -1758.12189056
  atomic energy  EATOM  =     57028.35897097
  Solvation  Ediel_sol  =         0.00000000
  ---------------------------------------------------
  free energy    TOTEN  =      1001.86224230 eV

  energy without entropy =     1001.86224230  energy(sigma->0) =     1001.86224230


--------------------------------------------------------------------------------------------------------




----------------------------------------- Iteration    1(   5)  ---------------------------------------


    EDDIAG:  cpu time    3.9098: real time    3.9141
  RMM-DIIS:  cpu time   32.1981: real time   32.2341
    ORTHCH:  cpu time    0.3217: real time    0.3219
       DOS:  cpu time    0.0001: real time    0.0001
    --------------------------------------------
      LOOP:  cpu time   36.4326: real time   36.4757

 eigenvalue-minimisations  :   624
 total energy-change (2. order) :-0.5304375E+03  (-0.4293144E+03)
 number of electron     451.0000000 magnetization      82.0000000
 augmentation part      451.0000000 magnetization      82.0000000

 Free energy of the ion-electron system (eV)
  ---------------------------------------------------
  alpha Z        PSCENC =        43.90094352
  Ewald energy   TEWEN  =    193027.36693602
  -Hartree energ DENC   =   -244874.06180388
  -exchange      EXHF   =         0.00000000
  -V(xc)+E(xc)   XCENC  =      1870.93544311
  PAW double counting   =     50338.52233409   -54675.03869097
  entropy T*S    EENTRO =        -0.00000000
  eigenvalues    EBANDS =     -2288.55940258
  atomic energy  EATOM  =     57028.35897097
  Solvation  Ediel_sol  =         0.00000000
  ---------------------------------------------------
  free energy    TOTEN  =       471.42473028 eV

  energy without entropy =      471.42473028  energy(sigma->0) =      471.42473028


--------------------------------------------------------------------------------------------------------




----------------------------------------- Iteration    1(   6)  ---------------------------------------


    EDDIAG:  cpu time    3.9079: real time    3.9121
  RMM-DIIS:  cpu time   32.0720: real time   32.1087
    ORTHCH:  cpu time    0.3521: real time    0.3522
       DOS:  cpu time    0.0001: real time    0.0001
    --------------------------------------------
      LOOP:  cpu time   36.3351: real time   36.3785

 eigenvalue-minimisations  :   624
 total energy-change (2. order) :-0.3338044E+03  (-0.2419062E+03)
 number of electron     451.0000000 magnetization      82.0000000
 augmentation part      451.0000000 magnetization      82.0000000

 Free energy of the ion-electron system (eV)
  ---------------------------------------------------
  alpha Z        PSCENC =        43.90094352
  Ewald energy   TEWEN  =    193027.36693602
  -Hartree energ DENC   =   -244874.06180388
  -exchange      EXHF   =         0.00000000
  -V(xc)+E(xc)   XCENC  =      1870.93544311
  PAW double counting   =     50338.52233409   -54675.03869097
  entropy T*S    EENTRO =        -0.00000000
  eigenvalues    EBANDS =     -2622.36381929
  atomic energy  EATOM  =     57028.35897097
  Solvation  Ediel_sol  =         0.00000000
  ---------------------------------------------------
  free energy    TOTEN  =       137.62031356 eV

  energy without entropy =      137.62031356  energy(sigma->0) =      137.62031356


--------------------------------------------------------------------------------------------------------




----------------------------------------- Iteration    1(   7)  ---------------------------------------


    EDDIAG:  cpu time    3.9124: real time    3.9177
  RMM-DIIS:  cpu time   31.9154: real time   31.9492
    ORTHCH:  cpu time    0.3272: real time    0.3276
       DOS:  cpu time    0.0001: real time    0.0001
    --------------------------------------------
      LOOP:  cpu time   36.1580: real time   36.2005

 eigenvalue-minimisations  :   624
 total energy-change (2. order) :-0.1222349E+03  (-0.1195534E+03)
 number of electron     451.0000000 magnetization      82.0000000
 augmentation part      451.0000000 magnetization      82.0000000

 Free energy of the ion-electron system (eV)
  ---------------------------------------------------
  alpha Z        PSCENC =        43.90094352
  Ewald energy   TEWEN  =    193027.36693602
  -Hartree energ DENC   =   -244874.06180388
  -exchange      EXHF   =         0.00000000
  -V(xc)+E(xc)   XCENC  =      1870.93544311
  PAW double counting   =     50338.52233409   -54675.03869097
  entropy T*S    EENTRO =         0.00000000
  eigenvalues    EBANDS =     -2744.59867810
  atomic energy  EATOM  =     57028.35897097
  Solvation  Ediel_sol  =         0.00000000
  ---------------------------------------------------
  free energy    TOTEN  =        15.38545475 eV

  energy without entropy =       15.38545475  energy(sigma->0) =       15.38545475


--------------------------------------------------------------------------------------------------------




----------------------------------------- Iteration    1(   8)  ---------------------------------------


    EDDIAG:  cpu time    3.9102: real time    3.9141
  RMM-DIIS:  cpu time   32.2058: real time   32.2422
    ORTHCH:  cpu time    0.3279: real time    0.3280
       DOS:  cpu time    0.0001: real time    0.0001
    --------------------------------------------
      LOOP:  cpu time   36.4469: real time   36.4900

 eigenvalue-minimisations  :   624
 total energy-change (2. order) :-0.6398769E+02  (-0.5328385E+02)
 number of electron     451.0000000 magnetization      82.0000000
 augmentation part      451.0000000 magnetization      82.0000000

 Free energy of the ion-electron system (eV)
  ---------------------------------------------------
  alpha Z        PSCENC =        43.90094352
  Ewald energy   TEWEN  =    193027.36693602
  -Hartree energ DENC   =   -244874.06180388
  -exchange      EXHF   =         0.00000000
  -V(xc)+E(xc)   XCENC  =      1870.93544311
  PAW double counting   =     50338.52233409   -54675.03869097
  entropy T*S    EENTRO =         0.00000000
  eigenvalues    EBANDS =     -2808.58636769
  atomic energy  EATOM  =     57028.35897097
  Solvation  Ediel_sol  =         0.00000000
  ---------------------------------------------------
  free energy    TOTEN  =       -48.60223483 eV

  energy without entropy =      -48.60223483  energy(sigma->0) =      -48.60223483


--------------------------------------------------------------------------------------------------------




----------------------------------------- Iteration    1(   9)  ---------------------------------------


    EDDIAG:  cpu time    3.9217: real time    3.9257
  RMM-DIIS:  cpu time   73.0720: real time   73.6903
    ORTHCH:  cpu time    0.3233: real time    0.3234
       DOS:  cpu time    0.0002: real time    0.0002
    --------------------------------------------
      LOOP:  cpu time   77.3199: real time   77.9433

 eigenvalue-minimisations  :  1485
 total energy-change (2. order) :-0.5504854E+02  (-0.5071596E+02)
 number of electron     451.0000000 magnetization      82.0000000
 augmentation part      451.0000000 magnetization      82.0000000

 Free energy of the ion-electron system (eV)
  ---------------------------------------------------
  alpha Z        PSCENC =        43.90094352
  Ewald energy   TEWEN  =    193027.36693602
  -Hartree energ DENC   =   -244874.06180388
  -exchange      EXHF   =         0.00000000
  -V(xc)+E(xc)   XCENC  =      1870.93544311
  PAW double counting   =     50338.52233409   -54675.03869097
  entropy T*S    EENTRO =        -0.00000000
  eigenvalues    EBANDS =     -2863.63490616
  atomic energy  EATOM  =     57028.35897097
  Solvation  Ediel_sol  =         0.00000000
  ---------------------------------------------------
  free energy    TOTEN  =      -103.65077331 eV

  energy without entropy =     -103.65077331  energy(sigma->0) =     -103.65077331


--------------------------------------------------------------------------------------------------------




----------------------------------------- Iteration    1(  10)  ---------------------------------------


    EDDIAG:  cpu time    3.9192: real time    3.9250
  RMM-DIIS:  cpu time   68.3200: real time   68.4023
    ORTHCH:  cpu time    0.3427: real time    0.3429
       DOS:  cpu time    0.0002: real time    0.0001
    --------------------------------------------
      LOOP:  cpu time   72.5849: real time   72.6760

 eigenvalue-minimisations  :  1376
 total energy-change (2. order) :-0.1004959E+02  (-0.7723625E+01)
 number of electron     451.0000000 magnetization      82.0000000
 augmentation part      451.0000000 magnetization      82.0000000

 Free energy of the ion-electron system (eV)
  ---------------------------------------------------
  alpha Z        PSCENC =        43.90094352
  Ewald energy   TEWEN  =    193027.36693602
  -Hartree energ DENC   =   -244874.06180388
  -exchange      EXHF   =         0.00000000
  -V(xc)+E(xc)   XCENC  =      1870.93544311
  PAW double counting   =     50338.52233409   -54675.03869097
  entropy T*S    EENTRO =         0.00000000
  eigenvalues    EBANDS =     -2873.68449842
  atomic energy  EATOM  =     57028.35897097
  Solvation  Ediel_sol  =         0.00000000
  ---------------------------------------------------
  free energy    TOTEN  =      -113.70036556 eV

  energy without entropy =     -113.70036556  energy(sigma->0) =     -113.70036556


--------------------------------------------------------------------------------------------------------




----------------------------------------- Iteration    1(  11)  ---------------------------------------


    EDDIAG:  cpu time    3.9101: real time    3.9143
  RMM-DIIS:  cpu time   77.6587: real time   77.7565
    ORTHCH:  cpu time    0.3248: real time    0.3249
       DOS:  cpu time    0.0002: real time    0.0002
    --------------------------------------------
      LOOP:  cpu time   81.8968: real time   82.0016

 eigenvalue-minimisations  :  1547
 total energy-change (2. order) :-0.5764477E+01  (-0.3329273E+01)
 number of electron     451.0000000 magnetization      82.0000000
 augmentation part      451.0000000 magnetization      82.0000000

 Free energy of the ion-electron system (eV)
  ---------------------------------------------------
  alpha Z        PSCENC =        43.90094352
  Ewald energy   TEWEN  =    193027.36693602
  -Hartree energ DENC   =   -244874.06180388
  -exchange      EXHF   =         0.00000000
  -V(xc)+E(xc)   XCENC  =      1870.93544311
  PAW double counting   =     50338.52233409   -54675.03869097
  entropy T*S    EENTRO =         0.00000000
  eigenvalues    EBANDS =     -2879.44897546
  atomic energy  EATOM  =     57028.35897097
  Solvation  Ediel_sol  =         0.00000000
  ---------------------------------------------------
  free energy    TOTEN  =      -119.46484260 eV

  energy without entropy =     -119.46484260  energy(sigma->0) =     -119.46484260


--------------------------------------------------------------------------------------------------------




----------------------------------------- Iteration    1(  12)  ---------------------------------------


    EDDIAG:  cpu time    3.9032: real time    3.9068
  RMM-DIIS:  cpu time   69.0401: real time   69.1180
    ORTHCH:  cpu time    0.3544: real time    0.3546
       DOS:  cpu time    0.0001: real time    0.0001
    CHARGE:  cpu time    1.6339: real time    1.6352
    MIXING:  cpu time    0.0306: real time    0.0306
    --------------------------------------------
      LOOP:  cpu time   74.9656: real time   75.0512

 eigenvalue-minimisations  :  1393
 total energy-change (2. order) :-0.1199151E+01  (-0.6295986E+00)
 number of electron     451.0000752 magnetization      77.5990663
 augmentation part      268.5980177 magnetization      75.4801196

 Broyden mixing:
  rms(total) = 0.82871E+01    rms(broyden)= 0.82857E+01
  rms(prec ) = 0.83662E+01
  weight for this iteration     100.00

 Free energy of the ion-electron system (eV)
  ---------------------------------------------------
  alpha Z        PSCENC =        43.90094352
  Ewald energy   TEWEN  =    193027.36693602
  -Hartree energ DENC   =   -244874.06180388
  -exchange      EXHF   =         0.00000000
  -V(xc)+E(xc)   XCENC  =      1870.93544311
  PAW double counting   =     50338.52233409   -54675.03869097
  entropy T*S    EENTRO =         0.00000000
  eigenvalues    EBANDS =     -2880.64812670
  atomic energy  EATOM  =     57028.35897097
  Solvation  Ediel_sol  =         0.00000000
  ---------------------------------------------------
  free energy    TOTEN  =      -120.66399385 eV

  energy without entropy =     -120.66399385  energy(sigma->0) =     -120.66399385


--------------------------------------------------------------------------------------------------------




----------------------------------------- Iteration    1(  13)  ---------------------------------------


    POTLOK:  cpu time    1.5557: real time    1.5570
    SETDIJ:  cpu time    0.0228: real time    0.0233
    EDDIAG:  cpu time    3.9261: real time    3.9329
  RMM-DIIS:  cpu time   62.2924: real time   62.7122
    ORTHCH:  cpu time    0.3294: real time    0.3295
       DOS:  cpu time    0.0002: real time    0.0002
    CHARGE:  cpu time    1.6350: real time    1.6361
    MIXING:  cpu time    0.0324: real time    0.0325
    --------------------------------------------
      LOOP:  cpu time   69.7974: real time   70.2297

 eigenvalue-minimisations  :  1250
 total energy-change (2. order) : 0.1284884E+03  (-0.8485722E+02)
 number of electron     451.0000867 magnetization      74.4948962
 augmentation part      305.1223210 magnetization      53.3510977

 Broyden mixing:
  rms(total) = 0.40414E+01    rms(broyden)= 0.40395E+01
  rms(prec ) = 0.41498E+01
  weight for this iteration     100.00

 eigenvalues of (default mixing * dielectric matrix)
  average eigenvalue GAMMA=   0.8822
  0.8822

 Free energy of the ion-electron system (eV)
  ---------------------------------------------------
  alpha Z        PSCENC =        43.90094352
  Ewald energy   TEWEN  =    193027.36693602
  -Hartree energ DENC   =   -243848.78688174
  -exchange      EXHF   =         0.00000000
  -V(xc)+E(xc)   XCENC  =      1921.71819225
  PAW double counting   =     50725.83016514   -54860.95787041
  entropy T*S    EENTRO =         0.00000000
  eigenvalues    EBANDS =     -4029.60608140
  atomic energy  EATOM  =     57028.35897097
  Solvation  Ediel_sol  =         0.00000000
  ---------------------------------------------------
  free energy    TOTEN  =         7.82437434 eV

  energy without entropy =        7.82437434  energy(sigma->0) =        7.82437434


--------------------------------------------------------------------------------------------------------




----------------------------------------- Iteration    1(  14)  ---------------------------------------


    POTLOK:  cpu time    1.5578: real time    1.5611
    SETDIJ:  cpu time    0.0223: real time    0.0228
    EDDIAG:  cpu time    3.9246: real time    3.9289
  RMM-DIIS:  cpu time   63.2195: real time   63.2893
    ORTHCH:  cpu time    0.3349: real time    0.3350
       DOS:  cpu time    0.0001: real time    0.0001
    CHARGE:  cpu time    1.6241: real time    1.6299
    MIXING:  cpu time    0.0353: real time    0.0353
    --------------------------------------------
      LOOP:  cpu time   70.7222: real time   70.8080

 eigenvalue-minimisations  :  1253
 total energy-change (2. order) : 0.4506069E+02  (-0.1943916E+02)
 number of electron     451.0000814 magnetization      69.5949198
 augmentation part      288.8659743 magnetization      44.6047608

 Broyden mixing:
  rms(total) = 0.19282E+01    rms(broyden)= 0.19277E+01
  rms(prec ) = 0.19465E+01
  weight for this iteration     100.00

 eigenvalues of (default mixing * dielectric matrix)
  average eigenvalue GAMMA=   0.9512
  1.2196  0.6828

 Free energy of the ion-electron system (eV)
  ---------------------------------------------------
  alpha Z        PSCENC =        43.90094352
  Ewald energy   TEWEN  =    193027.36693602
  -Hartree energ DENC   =   -244678.18208200
  -exchange      EXHF   =         0.00000000
  -V(xc)+E(xc)   XCENC  =      1959.24767362
  PAW double counting   =     52095.06925655   -56490.82315614
  entropy T*S    EENTRO =         0.00000000
  eigenvalues    EBANDS =     -2932.05348310
  atomic energy  EATOM  =     57028.35897097
  Solvation  Ediel_sol  =         0.00000000
  ---------------------------------------------------
  free energy    TOTEN  =        52.88505944 eV

  energy without entropy =       52.88505944  energy(sigma->0) =       52.88505944


--------------------------------------------------------------------------------------------------------




----------------------------------------- Iteration    1(  15)  ---------------------------------------


    POTLOK:  cpu time    1.5672: real time    1.5702
    SETDIJ:  cpu time    0.0226: real time    0.0231
    EDDIAG:  cpu time    3.9169: real time    3.9215
  RMM-DIIS:  cpu time   67.0404: real time   67.1183
    ORTHCH:  cpu time    0.3512: real time    0.3513
       DOS:  cpu time    0.0002: real time    0.0002
    CHARGE:  cpu time    1.6328: real time    1.6340
    MIXING:  cpu time    0.0395: real time    0.0395
    --------------------------------------------
      LOOP:  cpu time   74.5743: real time   74.6639

 eigenvalue-minimisations  :  1336
 total energy-change (2. order) : 0.3260239E+02  (-0.3882296E+01)
 number of electron     451.0000812 magnetization      63.9699574
 augmentation part      288.9030240 magnetization      35.7094750

 Broyden mixing:
  rms(total) = 0.13555E+01    rms(broyden)= 0.13552E+01
  rms(prec ) = 0.13599E+01
  weight for this iteration     100.00

 eigenvalues of (default mixing * dielectric matrix)
  average eigenvalue GAMMA=   1.0436
  0.6873  1.0712  1.3722

 Free energy of the ion-electron system (eV)
  ---------------------------------------------------
  alpha Z        PSCENC =        43.90094352
  Ewald energy   TEWEN  =    193027.36693602
  -Hartree energ DENC   =   -244873.68393048
  -exchange      EXHF   =         0.00000000
  -V(xc)+E(xc)   XCENC  =      1980.69025191
  PAW double counting   =     52978.75972707   -57407.02442925
  entropy T*S    EENTRO =         0.00000000
  eigenvalues    EBANDS =     -2692.88101833
  atomic energy  EATOM  =     57028.35897097
  Solvation  Ediel_sol  =         0.00000000
  ---------------------------------------------------
  free energy    TOTEN  =        85.48745143 eV

  energy without entropy =       85.48745143  energy(sigma->0) =       85.48745143


--------------------------------------------------------------------------------------------------------




----------------------------------------- Iteration    1(  16)  ---------------------------------------


    POTLOK:  cpu time    1.5504: real time    1.5522
    SETDIJ:  cpu time    0.0230: real time    0.0234
    EDDIAG:  cpu time    3.9218: real time    3.9262
  RMM-DIIS:  cpu time   63.6440: real time   63.7121
    ORTHCH:  cpu time    0.4075: real time    0.4077
       DOS:  cpu time    0.0001: real time    0.0001
    CHARGE:  cpu time    1.6317: real time    1.6330
    MIXING:  cpu time    0.0423: real time    0.0423
    --------------------------------------------
      LOOP:  cpu time   71.2244: real time   71.3028

 eigenvalue-minimisations  :  1256
 total energy-change (2. order) :-0.2373637E+02  (-0.1058722E+01)
 number of electron     451.0000817 magnetization      58.2528420
 augmentation part      289.9034790 magnetization      32.3700366

 Broyden mixing:
  rms(total) = 0.11676E+01    rms(broyden)= 0.11674E+01
  rms(prec ) = 0.11803E+01
  weight for this iteration     100.00

 eigenvalues of (default mixing * dielectric matrix)
  average eigenvalue GAMMA=   1.1830
  2.3131  1.2014  0.6834  0.5341

 Free energy of the ion-electron system (eV)
  ---------------------------------------------------
  alpha Z        PSCENC =        43.90094352
  Ewald energy   TEWEN  =    193027.36693602
  -Hartree energ DENC   =   -244888.41951253
  -exchange      EXHF   =         0.00000000
  -V(xc)+E(xc)   XCENC  =      1960.22348954
  PAW double counting   =     53373.33949900   -57793.69965834
  entropy T*S    EENTRO =         0.00000000
  eigenvalues    EBANDS =     -2689.31958686
  atomic energy  EATOM  =     57028.35897097
  Solvation  Ediel_sol  =         0.00000000
  ---------------------------------------------------
  free energy    TOTEN  =        61.75108132 eV

  energy without entropy =       61.75108132  energy(sigma->0) =       61.75108132


--------------------------------------------------------------------------------------------------------




----------------------------------------- Iteration    1(  17)  ---------------------------------------


    POTLOK:  cpu time    1.5569: real time    1.5585
    SETDIJ:  cpu time    0.0231: real time    0.0235
    EDDIAG:  cpu time    3.9295: real time    3.9354
  RMM-DIIS:  cpu time   62.0825: real time   62.6718
    ORTHCH:  cpu time    0.3619: real time    0.3623
       DOS:  cpu time    0.0002: real time    0.0002
    CHARGE:  cpu time    1.6327: real time    1.6342
    MIXING:  cpu time    0.0446: real time    0.0446
    --------------------------------------------
      LOOP:  cpu time   69.6349: real time   70.2366

 eigenvalue-minimisations  :  1254
 total energy-change (2. order) :-0.2032519E+02  (-0.9562398E+00)
 number of electron     451.0000817 magnetization      52.7205674
 augmentation part      290.0168482 magnetization      29.8371726

 Broyden mixing:
  rms(total) = 0.82837E+00    rms(broyden)= 0.82796E+00
  rms(prec ) = 0.83214E+00
  weight for this iteration     100.00

 eigenvalues of (default mixing * dielectric matrix)
  average eigenvalue GAMMA=   1.1876
  2.7796  1.2773  0.6919  0.6919  0.4973

 Free energy of the ion-electron system (eV)
  ---------------------------------------------------
  alpha Z        PSCENC =        43.90094352
  Ewald energy   TEWEN  =    193027.36693602
  -Hartree energ DENC   =   -244926.63110407
  -exchange      EXHF   =         0.00000000
  -V(xc)+E(xc)   XCENC  =      1945.02302005
  PAW double counting   =     53653.39648414   -58075.18226795
  entropy T*S    EENTRO =         0.00000000
  eigenvalues    EBANDS =     -2654.80708879
  atomic energy  EATOM  =     57028.35897097
  Solvation  Ediel_sol  =         0.00000000
  ---------------------------------------------------
  free energy    TOTEN  =        41.42589390 eV

  energy without entropy =       41.42589390  energy(sigma->0) =       41.42589390


--------------------------------------------------------------------------------------------------------




----------------------------------------- Iteration    1(  18)  ---------------------------------------


    POTLOK:  cpu time    1.5614: real time    1.5622
    SETDIJ:  cpu time    0.0226: real time    0.0231
    EDDIAG:  cpu time    3.9292: real time    3.9354
  RMM-DIIS:  cpu time   63.2992: real time   63.3688
    ORTHCH:  cpu time    0.3458: real time    0.3459
       DOS:  cpu time    0.0001: real time    0.0001
    CHARGE:  cpu time    1.6262: real time    1.6275
    MIXING:  cpu time    0.0479: real time    0.0479
    --------------------------------------------
      LOOP:  cpu time   70.8359: real time   70.9172

 eigenvalue-minimisations  :  1252
 total energy-change (2. order) :-0.2477921E+02  (-0.1191480E+01)
 number of electron     451.0000816 magnetization      44.7550873
 augmentation part      289.3639367 magnetization      23.5237218

 Broyden mixing:
  rms(total) = 0.64289E+00    rms(broyden)= 0.64280E+00
  rms(prec ) = 0.64700E+00
  weight for this iteration     100.00

 eigenvalues of (default mixing * dielectric matrix)
  average eigenvalue GAMMA=   1.3828
  3.7288  1.8267  0.8120  0.8120  0.6686  0.4489

 Free energy of the ion-electron system (eV)
  ---------------------------------------------------
  alpha Z        PSCENC =        43.90094352
  Ewald energy   TEWEN  =    193027.36693602
  -Hartree energ DENC   =   -244959.54351202
  -exchange      EXHF   =         0.00000000
  -V(xc)+E(xc)   XCENC  =      1927.82349265
  PAW double counting   =     53733.10780909   -58156.68719915
  entropy T*S    EENTRO =         0.00000000
  eigenvalues    EBANDS =     -2627.68075569
  atomic energy  EATOM  =     57028.35897097
  Solvation  Ediel_sol  =         0.00000000
  ---------------------------------------------------
  free energy    TOTEN  =        16.64668539 eV

  energy without entropy =       16.64668539  energy(sigma->0) =       16.64668539


--------------------------------------------------------------------------------------------------------




----------------------------------------- Iteration    1(  19)  ---------------------------------------


    POTLOK:  cpu time    1.5596: real time    1.5616
    SETDIJ:  cpu time    0.0225: real time    0.0229
    EDDIAG:  cpu time    3.9315: real time    3.9385
  RMM-DIIS:  cpu time   63.5583: real time   63.6303
    ORTHCH:  cpu time    0.3324: real time    0.3325
       DOS:  cpu time    0.0001: real time    0.0001
    CHARGE:  cpu time    1.6276: real time    1.6288
    MIXING:  cpu time    0.0518: real time    0.0518
    --------------------------------------------
      LOOP:  cpu time   71.0872: real time   71.1728

 eigenvalue-minimisations  :  1249
 total energy-change (2. order) :-0.5929047E+02  (-0.4962703E+01)
 number of electron     451.0000822 magnetization      39.5750683
 augmentation part      289.1869117 magnetization      24.3158960

 Broyden mixing:
  rms(total) = 0.52615E+00    rms(broyden)= 0.52498E+00
  rms(prec ) = 0.53075E+00
  weight for this iteration     100.00

 eigenvalues of (default mixing * dielectric matrix)
  average eigenvalue GAMMA=   1.3702
  4.2196  1.9833  1.0184  0.6808  0.6808  0.5571  0.4517

 Free energy of the ion-electron system (eV)
  ---------------------------------------------------
  alpha Z        PSCENC =        43.90094352
  Ewald energy   TEWEN  =    193027.36693602
  -Hartree energ DENC   =   -244925.30582718
  -exchange      EXHF   =         0.00000000
  -V(xc)+E(xc)   XCENC  =      1883.54970905
  PAW double counting   =     53526.71476834   -57937.16638809
  entropy T*S    EENTRO =         0.00000000
  eigenvalues    EBANDS =     -2690.06289747
  atomic energy  EATOM  =     57028.35897097
  Solvation  Ediel_sol  =         0.00000000
  ---------------------------------------------------
  free energy    TOTEN  =       -42.64378484 eV

  energy without entropy =      -42.64378484  energy(sigma->0) =      -42.64378484


--------------------------------------------------------------------------------------------------------




----------------------------------------- Iteration    1(  20)  ---------------------------------------


    POTLOK:  cpu time    1.5635: real time    1.5680
    SETDIJ:  cpu time    0.0224: real time    0.0228
    EDDIAG:  cpu time    3.9270: real time    3.9336
  RMM-DIIS:  cpu time   62.8404: real time   62.9130
    ORTHCH:  cpu time    0.3519: real time    0.3520
       DOS:  cpu time    0.0002: real time    0.0002
    CHARGE:  cpu time    1.6346: real time    1.6360
    MIXING:  cpu time    0.0560: real time    0.0561
    --------------------------------------------
      LOOP:  cpu time   70.3995: real time   70.4878

 eigenvalue-minimisations  :  1255
 total energy-change (2. order) :-0.2225764E+02  (-0.2038203E+01)
 number of electron     451.0000818 magnetization      32.7313887
 augmentation part      288.3050636 magnetization      22.1975998

 Broyden mixing:
  rms(total) = 0.47179E+00    rms(broyden)= 0.47063E+00
  rms(prec ) = 0.47568E+00
  weight for this iteration     100.00

 eigenvalues of (default mixing * dielectric matrix)
  average eigenvalue GAMMA=   1.4540
  5.2203  2.2631  1.1294  0.7109  0.7109  0.4526  0.5882  0.5564

 Free energy of the ion-electron system (eV)
  ---------------------------------------------------
  alpha Z        PSCENC =        43.90094352
  Ewald energy   TEWEN  =    193027.36693602
  -Hartree energ DENC   =   -244925.47296298
  -exchange      EXHF   =         0.00000000
  -V(xc)+E(xc)   XCENC  =      1867.73675178
  PAW double counting   =     53469.87708946   -57880.85766905
  entropy T*S    EENTRO =         0.00000000
  eigenvalues    EBANDS =     -2695.81148105
  atomic energy  EATOM  =     57028.35897097
  Solvation  Ediel_sol  =         0.00000000
  ---------------------------------------------------
  free energy    TOTEN  =       -64.90142133 eV

  energy without entropy =      -64.90142133  energy(sigma->0) =      -64.90142133


--------------------------------------------------------------------------------------------------------




----------------------------------------- Iteration    1(  21)  ---------------------------------------


    POTLOK:  cpu time    1.5695: real time    1.5714
    SETDIJ:  cpu time    0.0229: real time    0.0233
    EDDIAG:  cpu time    3.9354: real time    3.9414
  RMM-DIIS:  cpu time   62.5579: real time   62.8982
    ORTHCH:  cpu time    0.3362: real time    0.3363
       DOS:  cpu time    0.0001: real time    0.0001
    CHARGE:  cpu time    1.5959: real time    1.6245
    MIXING:  cpu time    0.0632: real time    0.0633
    --------------------------------------------
      LOOP:  cpu time   70.0847: real time   70.4646

 eigenvalue-minimisations  :  1249
 total energy-change (2. order) :-0.1758202E+02  (-0.1696651E+01)
 number of electron     451.0000817 magnetization      27.5598717
 augmentation part      288.4180691 magnetization      21.8975504

 Broyden mixing:
  rms(total) = 0.38971E+00    rms(broyden)= 0.38884E+00
  rms(prec ) = 0.39608E+00
  weight for this iteration     100.00

 eigenvalues of (default mixing * dielectric matrix)
  average eigenvalue GAMMA=   1.5576
  6.7025  2.4153  1.2208  0.7754  0.7754  0.6228  0.4484  0.5288  0.5288

 Free energy of the ion-electron system (eV)
  ---------------------------------------------------
  alpha Z        PSCENC =        43.90094352
  Ewald energy   TEWEN  =    193027.36693602
  -Hartree energ DENC   =   -244904.98880422
  -exchange      EXHF   =         0.00000000
  -V(xc)+E(xc)   XCENC  =      1854.21480354
  PAW double counting   =     53415.37488939   -57820.28372685
  entropy T*S    EENTRO =         0.00000000
  eigenvalues    EBANDS =     -2726.42745700
  atomic energy  EATOM  =     57028.35897097
  Solvation  Ediel_sol  =         0.00000000
  ---------------------------------------------------
  free energy    TOTEN  =       -82.48344463 eV

  energy without entropy =      -82.48344463  energy(sigma->0) =      -82.48344463


--------------------------------------------------------------------------------------------------------




----------------------------------------- Iteration    1(  22)  ---------------------------------------


    POTLOK:  cpu time    1.5616: real time    1.5646
    SETDIJ:  cpu time    0.0224: real time    0.0228
    EDDIAG:  cpu time    3.9200: real time    3.9241
  RMM-DIIS:  cpu time   62.3151: real time   62.3874
    ORTHCH:  cpu time    0.4156: real time    0.4159
       DOS:  cpu time    0.0002: real time    0.0002
    CHARGE:  cpu time    1.6258: real time    1.6271
    MIXING:  cpu time    0.0698: real time    0.0698
    --------------------------------------------
      LOOP:  cpu time   69.9339: real time   70.0407

 eigenvalue-minimisations  :  1251
 total energy-change (2. order) :-0.1018765E+02  (-0.9494999E+00)
 number of electron     451.0000813 magnetization      24.7499013
 augmentation part      288.4091642 magnetization      20.3223432

 Broyden mixing:
  rms(total) = 0.29882E+00    rms(broyden)= 0.29870E+00
  rms(prec ) = 0.30328E+00
  weight for this iteration     100.00

 eigenvalues of (default mixing * dielectric matrix)
  average eigenvalue GAMMA=   1.6454
  7.9769  2.7334  1.0288  1.0288  0.6684  0.6684  0.7001  0.7001  0.4500  0.4993

 Free energy of the ion-electron system (eV)
  ---------------------------------------------------
  alpha Z        PSCENC =        43.90094352
  Ewald energy   TEWEN  =    193027.36693602
  -Hartree energ DENC   =   -244890.34628079
  -exchange      EXHF   =         0.00000000
  -V(xc)+E(xc)   XCENC  =      1846.45676353
  PAW double counting   =     53384.36298054   -57787.08366883
  entropy T*S    EENTRO =         0.00000000
  eigenvalues    EBANDS =     -2745.68773691
  atomic energy  EATOM  =     57028.35897097
  Solvation  Ediel_sol  =         0.00000000
  ---------------------------------------------------
  free energy    TOTEN  =       -92.67109196 eV

  energy without entropy =      -92.67109196  energy(sigma->0) =      -92.67109196


--------------------------------------------------------------------------------------------------------




----------------------------------------- Iteration    1(  23)  ---------------------------------------


    POTLOK:  cpu time    1.5720: real time    1.5763
    SETDIJ:  cpu time    0.0222: real time    0.0226
    EDDIAG:  cpu time    3.9330: real time    3.9393
  RMM-DIIS:  cpu time   62.3535: real time   62.4255
    ORTHCH:  cpu time    0.3462: real time    0.3463
       DOS:  cpu time    0.0002: real time    0.0002
    CHARGE:  cpu time    1.6234: real time    1.6253
    MIXING:  cpu time    0.0741: real time    0.0742
    --------------------------------------------
      LOOP:  cpu time   69.9282: real time   70.0158

 eigenvalue-minimisations  :  1250
 total energy-change (2. order) :-0.9115529E+01  (-0.6146544E+00)
 number of electron     451.0000815 magnetization      21.9712329
 augmentation part      288.6548705 magnetization      18.5133568

 Broyden mixing:
  rms(total) = 0.22210E+00    rms(broyden)= 0.22202E+00
  rms(prec ) = 0.22620E+00
  weight for this iteration     100.00

 eigenvalues of (default mixing * dielectric matrix)
  average eigenvalue GAMMA=   1.7158
  8.7039  3.2180  1.2376  1.2376  0.8111  0.8111  0.6788  0.6788  0.4456  0.5257
  0.5257

 Free energy of the ion-electron system (eV)
  ---------------------------------------------------
  alpha Z        PSCENC =        43.90094352
  Ewald energy   TEWEN  =    193027.36693602
  -Hartree energ DENC   =   -244837.23318512
  -exchange      EXHF   =         0.00000000
  -V(xc)+E(xc)   XCENC  =      1838.54736847
  PAW double counting   =     53258.35815332   -57655.00347461
  entropy T*S    EENTRO =        -0.00000000
  eigenvalues    EBANDS =     -2806.08233379
  atomic energy  EATOM  =     57028.35897097
  Solvation  Ediel_sol  =         0.00000000
  ---------------------------------------------------
  free energy    TOTEN  =      -101.78662121 eV

  energy without entropy =     -101.78662121  energy(sigma->0) =     -101.78662121


--------------------------------------------------------------------------------------------------------




----------------------------------------- Iteration    1(  24)  ---------------------------------------


    POTLOK:  cpu time    1.5702: real time    1.5730
    SETDIJ:  cpu time    0.0228: real time    0.0232
    EDDIAG:  cpu time    3.9320: real time    3.9368
  RMM-DIIS:  cpu time   62.1729: real time   62.2434
    ORTHCH:  cpu time    0.3356: real time    0.3360
       DOS:  cpu time    0.0002: real time    0.0002
    CHARGE:  cpu time    1.6326: real time    1.6340
    MIXING:  cpu time    0.0816: real time    0.0816
    --------------------------------------------
      LOOP:  cpu time   69.7514: real time   69.8343

 eigenvalue-minimisations  :  1251
 total energy-change (2. order) :-0.6653402E+01  (-0.2430564E+00)
 number of electron     451.0000811 magnetization      18.7708910
 augmentation part      288.7712891 magnetization      17.2868598

 Broyden mixing:
  rms(total) = 0.24225E+00    rms(broyden)= 0.24151E+00
  rms(prec ) = 0.24703E+00
  weight for this iteration     100.00

 eigenvalues of (default mixing * dielectric matrix)
  average eigenvalue GAMMA=   1.6716
  9.4578  3.2038  1.2045  1.1039  1.1039  0.7260  0.7260  0.6607  0.5392  0.5392
  0.4417  0.3523

 Free energy of the ion-electron system (eV)
  ---------------------------------------------------
  alpha Z        PSCENC =        43.90094352
  Ewald energy   TEWEN  =    193027.36693602
  -Hartree energ DENC   =   -244785.08877508
  -exchange      EXHF   =         0.00000000
  -V(xc)+E(xc)   XCENC  =      1832.39928722
  PAW double counting   =     53180.61384396   -57577.73152993
  entropy T*S    EENTRO =         0.00000000
  eigenvalues    EBANDS =     -2858.25970024
  atomic energy  EATOM  =     57028.35897097
  Solvation  Ediel_sol  =         0.00000000
  ---------------------------------------------------
  free energy    TOTEN  =      -108.44002354 eV

  energy without entropy =     -108.44002354  energy(sigma->0) =     -108.44002354


--------------------------------------------------------------------------------------------------------




----------------------------------------- Iteration    1(  25)  ---------------------------------------


    POTLOK:  cpu time    1.5574: real time    1.5641
    SETDIJ:  cpu time    0.0228: real time    0.0232
    EDDIAG:  cpu time    3.9266: real time    3.9321
  RMM-DIIS:  cpu time   63.4079: real time   63.4786
    ORTHCH:  cpu time    0.3314: real time    0.3315
       DOS:  cpu time    0.0001: real time    0.0001
    CHARGE:  cpu time    1.6288: real time    1.6346
    MIXING:  cpu time    0.0876: real time    0.0878
    --------------------------------------------
      LOOP:  cpu time   70.9673: real time   71.0675

 eigenvalue-minimisations  :  1265
 total energy-change (2. order) :-0.2153644E+01  (-0.7277312E-01)
 number of electron     451.0000811 magnetization      15.8159480
 augmentation part      288.6982646 magnetization      14.6530636

 Broyden mixing:
  rms(total) = 0.15897E+00    rms(broyden)= 0.15891E+00
  rms(prec ) = 0.16253E+00
  weight for this iteration     100.00

 eigenvalues of (default mixing * dielectric matrix)
  average eigenvalue GAMMA=   1.7216
 10.2907  2.9894  1.8191  1.2091  1.2091  0.7244  0.7244  0.7684  0.6088  0.6088
  0.4583  0.4849  0.4849

 Free energy of the ion-electron system (eV)
  ---------------------------------------------------
  alpha Z        PSCENC =        43.90094352
  Ewald energy   TEWEN  =    193027.36693602
  -Hartree energ DENC   =   -244778.04336026
  -exchange      EXHF   =         0.00000000
  -V(xc)+E(xc)   XCENC  =      1830.41138304
  PAW double counting   =     53199.39633491   -57599.67213906
  entropy T*S    EENTRO =         0.00000000
  eigenvalues    EBANDS =     -2862.31273634
  atomic energy  EATOM  =     57028.35897097
  Solvation  Ediel_sol  =         0.00000000
  ---------------------------------------------------
  free energy    TOTEN  =      -110.59366720 eV

  energy without entropy =     -110.59366720  energy(sigma->0) =     -110.59366720


--------------------------------------------------------------------------------------------------------




----------------------------------------- Iteration    1(  26)  ---------------------------------------


    POTLOK:  cpu time    1.5692: real time    1.5713
    SETDIJ:  cpu time    0.0230: real time    0.0230
    EDDIAG:  cpu time    3.9298: real time    3.9343
  RMM-DIIS:  cpu time   63.2384: real time   63.8245
    ORTHCH:  cpu time    0.3492: real time    0.3495
       DOS:  cpu time    0.0002: real time    0.0002
    CHARGE:  cpu time    1.6303: real time    1.6330
    MIXING:  cpu time    0.0959: real time    0.0959
    --------------------------------------------
      LOOP:  cpu time   70.8394: real time   71.4369

 eigenvalue-minimisations  :  1263
 total energy-change (2. order) :-0.2130260E+01  (-0.3204508E-01)
 number of electron     451.0000811 magnetization      12.2349761
 augmentation part      288.5872567 magnetization      11.1710996

 Broyden mixing:
  rms(total) = 0.12220E+00    rms(broyden)= 0.12218E+00
  rms(prec ) = 0.12476E+00
  weight for this iteration     100.00

 eigenvalues of (default mixing * dielectric matrix)
  average eigenvalue GAMMA=   1.8061
 11.3821  3.3047  2.2843  1.3571  1.1240  1.1240  0.7065  0.7065  0.6884  0.6213
  0.5249  0.5249  0.4683  0.4683

 Free energy of the ion-electron system (eV)
  ---------------------------------------------------
  alpha Z        PSCENC =        43.90094352
  Ewald energy   TEWEN  =    193027.36693602
  -Hartree energ DENC   =   -244763.70446712
  -exchange      EXHF   =         0.00000000
  -V(xc)+E(xc)   XCENC  =      1828.26369786
  PAW double counting   =     53228.29048609   -57631.93195005
  entropy T*S    EENTRO =        -0.00000000
  eigenvalues    EBANDS =     -2873.26854412
  atomic energy  EATOM  =     57028.35897097
  Solvation  Ediel_sol  =         0.00000000
  ---------------------------------------------------
  free energy    TOTEN  =      -112.72392683 eV

  energy without entropy =     -112.72392683  energy(sigma->0) =     -112.72392683


--------------------------------------------------------------------------------------------------------




----------------------------------------- Iteration    1(  27)  ---------------------------------------


    POTLOK:  cpu time    1.5672: real time    1.5687
    SETDIJ:  cpu time    0.0232: real time    0.0237
    EDDIAG:  cpu time    3.9100: real time    3.9146
  RMM-DIIS:  cpu time   63.1157: real time   63.1876
    ORTHCH:  cpu time    0.3236: real time    0.3255
       DOS:  cpu time    0.0001: real time    0.0001
    CHARGE:  cpu time    1.6316: real time    1.6333
    MIXING:  cpu time    0.1042: real time    0.1043
    --------------------------------------------
      LOOP:  cpu time   70.6793: real time   70.7639

 eigenvalue-minimisations  :  1249
 total energy-change (2. order) :-0.2915907E+01  (-0.3589396E-01)
 number of electron     451.0000811 magnetization      10.9943956
 augmentation part      288.7033296 magnetization      10.0831832

 Broyden mixing:
  rms(total) = 0.96395E-01    rms(broyden)= 0.96373E-01
  rms(prec ) = 0.99027E-01
  weight for this iteration     100.00

 eigenvalues of (default mixing * dielectric matrix)
  average eigenvalue GAMMA=   1.7990
 11.6278  3.7658  2.4142  1.2441  1.2441  1.2378  0.7322  0.7322  0.7097  0.7097
  0.6693  0.5060  0.5060  0.4430  0.4430

 Free energy of the ion-electron system (eV)
  ---------------------------------------------------
  alpha Z        PSCENC =        43.90094352
  Ewald energy   TEWEN  =    193027.36693602
  -Hartree energ DENC   =   -244719.28487233
  -exchange      EXHF   =         0.00000000
  -V(xc)+E(xc)   XCENC  =      1824.99927563
  PAW double counting   =     53203.41244234   -57607.07002412
  entropy T*S    EENTRO =         0.00000000
  eigenvalues    EBANDS =     -2917.32350560
  atomic energy  EATOM  =     57028.35897097
  Solvation  Ediel_sol  =         0.00000000
  ---------------------------------------------------
  free energy    TOTEN  =      -115.63983357 eV

  energy without entropy =     -115.63983357  energy(sigma->0) =     -115.63983357


--------------------------------------------------------------------------------------------------------




----------------------------------------- Iteration    1(  28)  ---------------------------------------


    POTLOK:  cpu time    1.5711: real time    1.5722
    SETDIJ:  cpu time    0.0224: real time    0.0230
    EDDIAG:  cpu time    3.8975: real time    3.9015
  RMM-DIIS:  cpu time   62.6066: real time   62.6852
    ORTHCH:  cpu time    0.4203: real time    0.4218
       DOS:  cpu time    0.0001: real time    0.0001
    CHARGE:  cpu time    1.6327: real time    1.6340
    MIXING:  cpu time    0.1116: real time    0.1118
    --------------------------------------------
      LOOP:  cpu time   70.2660: real time   70.3556

 eigenvalue-minimisations  :  1251
 total energy-change (2. order) :-0.1247639E+01  (-0.6406835E-02)
 number of electron     451.0000811 magnetization       9.0195747
 augmentation part      288.6852730 magnetization       8.1019195

 Broyden mixing:
  rms(total) = 0.75815E-01    rms(broyden)= 0.75809E-01
  rms(prec ) = 0.77190E-01
  weight for this iteration     100.00

 eigenvalues of (default mixing * dielectric matrix)
  average eigenvalue GAMMA=   1.8141
 11.9976  4.0954  2.5954  1.3375  1.3375  1.1793  1.1793  0.7138  0.7138  0.7752
  0.6475  0.5194  0.5194  0.5034  0.4555  0.4555

 Free energy of the ion-electron system (eV)
  ---------------------------------------------------
  alpha Z        PSCENC =        43.90094352
  Ewald energy   TEWEN  =    193027.36693602
  -Hartree energ DENC   =   -244702.59947327
  -exchange      EXHF   =         0.00000000
  -V(xc)+E(xc)   XCENC  =      1823.73050109
  PAW double counting   =     53199.51148552   -57603.39593465
  entropy T*S    EENTRO =         0.00000000
  eigenvalues    EBANDS =     -2933.76090158
  atomic energy  EATOM  =     57028.35897097
  Solvation  Ediel_sol  =         0.00000000
  ---------------------------------------------------
  free energy    TOTEN  =      -116.88747238 eV

  energy without entropy =     -116.88747238  energy(sigma->0) =     -116.88747238


--------------------------------------------------------------------------------------------------------




----------------------------------------- Iteration    1(  29)  ---------------------------------------


    POTLOK:  cpu time    1.5628: real time    1.5640
    SETDIJ:  cpu time    0.0226: real time    0.0230
    EDDIAG:  cpu time    3.9319: real time    3.9359
  RMM-DIIS:  cpu time   62.1297: real time   62.2029
    ORTHCH:  cpu time    0.3422: real time    0.3438
       DOS:  cpu time    0.0001: real time    0.0001
    CHARGE:  cpu time    1.6339: real time    1.6351
    MIXING:  cpu time    0.1192: real time    0.1195
    --------------------------------------------
      LOOP:  cpu time   69.7463: real time   69.8307

 eigenvalue-minimisations  :  1249
 total energy-change (2. order) :-0.1349489E+01  (-0.4466728E-02)
 number of electron     451.0000811 magnetization       6.9109443
 augmentation part      288.6350882 magnetization       5.9974522

 Broyden mixing:
  rms(total) = 0.60835E-01    rms(broyden)= 0.60830E-01
  rms(prec ) = 0.61751E-01
  weight for this iteration     100.00

 eigenvalues of (default mixing * dielectric matrix)
  average eigenvalue GAMMA=   1.8565
 12.4011  4.8099  2.8629  1.3949  1.3949  1.2976  1.2976  0.7190  0.7190  0.8151
  0.7096  0.7096  0.5191  0.5191  0.4678  0.4678  0.4555

 Free energy of the ion-electron system (eV)
  ---------------------------------------------------
  alpha Z        PSCENC =        43.90094352
  Ewald energy   TEWEN  =    193027.36693602
  -Hartree energ DENC   =   -244687.65919779
  -exchange      EXHF   =         0.00000000
  -V(xc)+E(xc)   XCENC  =      1822.39373621
  PAW double counting   =     53213.42924936   -57617.90757978
  entropy T*S    EENTRO =         0.00000000
  eigenvalues    EBANDS =     -2948.12002030
  atomic energy  EATOM  =     57028.35897097
  Solvation  Ediel_sol  =         0.00000000
  ---------------------------------------------------
  free energy    TOTEN  =      -118.23696180 eV

  energy without entropy =     -118.23696180  energy(sigma->0) =     -118.23696180


--------------------------------------------------------------------------------------------------------




----------------------------------------- Iteration    1(  30)  ---------------------------------------


[...]
 30        0.459   0.225   9.244   9.928
 31        0.459   0.225   9.244   9.928
 32        0.456   0.219   9.248   9.924
 33        0.456   0.219   9.248   9.924
 34        0.459   0.223   9.244   9.926
 35        0.459   0.223   9.244   9.926
 36        0.456   0.217   9.249   9.922
 37        0.456   0.218   9.249   9.922
 38        0.483   0.177   9.251   9.911
 39        0.486   0.182   9.246   9.915
 40        0.485   0.182   9.246   9.913
 41        0.482   0.176   9.251   9.909
------------------------------------------------
tot       18.767  10.827 378.209 407.804
 


 magnetization (x)
 
# of ion     s       p       d       tot
----------------------------------------
  1        0.000   0.003  -0.000   0.003
  2        0.010   0.000   0.011   0.021
  3        0.000   0.003  -0.000   0.003
  4        0.010   0.000   0.011   0.021
  5        0.008   0.002   0.013   0.022
  6        0.001   0.002  -0.002   0.002
  7        0.001   0.001   0.012   0.013
  8        0.001   0.001   0.012   0.013
  9        0.018   0.008   0.008   0.034
 10        0.004   0.004   0.005   0.013
 11        0.004   0.004   0.005   0.013
 12        0.001   0.008   0.011   0.020
 13        0.000   0.003  -0.000   0.003
 14        0.000   0.003  -0.000   0.003
 15        0.008   0.002   0.013   0.022
 16        0.001   0.002  -0.002   0.002
 17        0.001   0.001   0.012   0.013
 18        0.001   0.001   0.011   0.013
 19        0.017   0.008   0.008   0.034
 20        0.006  -0.000   0.003   0.008
 21        0.006  -0.000   0.003   0.008
 22        0.000   0.006   0.004   0.011
 23        0.000   0.006   0.004   0.011
 24       -0.000   0.003   0.000   0.003
 25       -0.000   0.003   0.000   0.003
 26        0.000   0.006   0.005   0.011
 27        0.000   0.006   0.005   0.011
 28        0.006  -0.000   0.003   0.008
 29        0.006  -0.000   0.003   0.008
 30        0.005   0.007   0.007   0.018
 31        0.005   0.007   0.007   0.019
 32        0.001   0.003   0.002   0.006
 33        0.001   0.003   0.002   0.006
 34        0.005   0.007   0.007   0.019
 35        0.005   0.007   0.007   0.019
 36        0.001   0.002   0.002   0.006
 37        0.001   0.002   0.002   0.006
 38        0.007   0.005   0.002   0.015
 39       -0.000   0.000   0.003   0.003
 40       -0.000   0.000   0.003   0.003
 41        0.007   0.005   0.002   0.015
------------------------------------------------
tot        0.144   0.135   0.203   0.482
 
    CHARGE:  cpu time    1.6279: real time    1.6312
    FORLOC:  cpu time    0.1586: real time    0.1586
    FORNL :  cpu time   30.3851: real time   30.4054
    STRESS:  cpu time  107.9517: real time  108.0585
    FORCOR:  cpu time    1.6443: real time    1.6462
    FORHAR:  cpu time    0.3187: real time    0.3191
    MIXING:  cpu time    0.4352: real time    0.4353
    OFIELD:  cpu time    0.0001: real time    0.0001

  FORCE on cell =-STRESS in cart. coord.  units (eV):
  Direction    XX          YY          ZZ          XY          YZ          ZX
  --------------------------------------------------------------------------------------
  Alpha Z    43.90094    43.90094    43.90094
  Ewald   85707.80427 61247.27686 46072.21083  7675.69466    -0.85685    -1.59841
  Hartree101750.72795 78484.96581 64412.58594  7255.66497    -0.84641    -1.08268
  E(xc)   -2631.09644 -2632.47096 -2634.21146     0.48617    -0.00005    -0.00062
  Local  ************************************-14928.72642     1.70670     2.64780
  n-local  -941.67500  -946.13432  -950.40145     1.58475    -0.00042    -0.01113
  augment  3853.69356  3859.56276  3869.33815    -2.04878    -0.00170     0.01541
  Kinetic  3684.33709  3691.18423  3702.66170    -2.45774    -0.00136     0.01057
  Fock        0.00000     0.00000     0.00000     0.00000     0.00000     0.00000
  -------------------------------------------------------------------------------------
  Total     -11.17207   -11.58714   -11.01032     0.19761    -0.00009    -0.01905
  in kB      -0.63920    -0.66295    -0.62995     0.01131    -0.00000    -0.00109
  external pressure =       -0.64 kB  Pullay stress =        0.00 kB


 VOLUME and BASIS-vectors are now :
 -----------------------------------------------------------------------------
  energy-cutoff  :      295.45
  volume of cell :    28003.10
      direct lattice vectors                 reciprocal lattice vectors
    30.367009654  0.000000000  0.000000000     0.032930473  0.000000000  0.000000000
     0.000000000 30.367009654  0.000000000     0.000000000  0.032930473  0.000000000
     0.000000000  0.000000000 30.367009654     0.000000000  0.000000000  0.032930473

  length of vectors
    30.367009654 30.367009654 30.367009654     0.032930473  0.032930473  0.032930473


 FORCES acting on ions
    electron-ion (+dipol)            ewald-force                    non-local-force                 convergence-correction
 -----------------------------------------------------------------------------------------------
   0.340E+03 0.113E+04 0.192E+04   -.340E+03 -.113E+04 -.192E+04   -.130E+00 -.101E+01 -.212E+01   -.516E-06 0.896E-05 0.133E-04
   0.291E+03 0.101E+04 0.248E-01   -.292E+03 -.101E+04 -.248E-01   0.638E+00 -.886E+00 -.222E-04   -.860E-05 0.199E-04 -.772E-05
   -.933E+03 0.725E+03 0.192E+04   0.932E+03 -.725E+03 -.192E+04   0.687E+00 -.770E+00 -.211E+01   -.526E-05 0.122E-04 0.122E-04
   -.819E+03 0.657E+03 0.393E+00   0.819E+03 -.656E+03 -.391E+00   -.372E-02 -.111E+01 -.239E-02   -.544E-05 0.230E-04 -.835E-05
   0.794E+02 -.235E+03 0.883E+03   -.794E+02 0.235E+03 -.881E+03   0.795E-01 -.324E+00 -.217E+01   0.599E-05 -.739E-05 0.154E-04
   0.455E+02 -.133E+03 0.244E+04   -.452E+02 0.133E+03 -.243E+04   -.265E+00 0.788E+00 -.916E+01   0.768E-05 -.115E-04 0.193E-04
   0.124E+04 -.225E+03 0.189E+04   -.124E+04 0.225E+03 -.188E+04   -.943E+00 0.259E+00 -.174E+01   0.894E-05 -.507E-05 0.791E-05
   -.877E+03 -.902E+03 0.189E+04   0.876E+03 0.901E+03 -.188E+04   0.566E+00 0.721E+00 -.166E+01   -.395E-05 -.911E-05 0.133E-04
   0.506E+03 -.159E+04 0.166E+04   -.505E+03 0.159E+04 -.166E+04   -.964E+00 0.299E+01 -.352E+01   0.376E-05 0.186E-05 0.110E-04
   0.112E+04 -.312E+03 -.341E+00   -.112E+04 0.311E+03 0.338E+00   -.147E+01 0.858E+00 0.319E-02   0.916E-05 -.207E-06 -.252E-05
   -.727E+03 -.902E+03 0.260E+00   0.726E+03 0.900E+03 -.258E+00   0.685E+00 0.156E+01 -.190E-02   -.719E-05 -.493E-05 -.413E-05
   0.586E+03 -.184E+04 -.359E+00   -.587E+03 0.184E+04 0.359E+00   0.533E+00 -.170E+01 0.394E-03   0.338E-05 -.514E-05 -.180E-05
   0.340E+03 0.114E+04 -.192E+04   -.340E+03 -.113E+04 0.192E+04   -.128E+00 -.101E+01 0.212E+01   -.693E-05 0.686E-05 -.835E-05
   -.934E+03 0.726E+03 -.192E+04   0.933E+03 -.725E+03 0.192E+04   0.687E+00 -.768E+00 0.210E+01   -.320E-07 0.128E-04 -.705E-05
   0.789E+02 -.234E+03 -.883E+03   -.790E+02 0.235E+03 0.881E+03   0.803E-01 -.324E+00 0.217E+01   0.430E-05 -.641E-06 -.235E-04
   0.442E+02 -.133E+03 -.244E+04   -.439E+02 0.132E+03 0.243E+04   -.259E+00 0.787E+00 0.916E+01   0.550E-05 -.498E-05 -.949E-05
   0.124E+04 -.225E+03 -.189E+04   -.124E+04 0.225E+03 0.188E+04   -.943E+00 0.259E+00 0.175E+01   0.347E-05 -.327E-05 -.519E-05
   -.878E+03 -.902E+03 -.188E+04   0.877E+03 0.901E+03 0.188E+04   0.566E+00 0.719E+00 0.166E+01   -.438E-05 -.698E-05 -.123E-04
   0.505E+03 -.159E+04 -.167E+04   -.504E+03 0.159E+04 0.166E+04   -.964E+00 0.299E+01 0.352E+01   0.350E-05 -.149E-05 -.133E-04
   -.168E+04 -.444E+02 -.119E+04   0.168E+04 0.441E+02 0.119E+04   0.248E+01 0.294E+00 0.746E+00   -.104E-04 0.671E-05 -.590E-05
   -.168E+04 -.444E+02 0.119E+04   0.168E+04 0.441E+02 -.119E+04   0.248E+01 0.294E+00 -.748E+00   -.135E-04 0.433E-05 0.422E-05
   -.288E+03 -.221E+04 -.826E+03   0.287E+03 0.221E+04 0.824E+03   0.110E+01 0.634E+01 0.194E+01   -.295E-05 -.742E-05 -.149E-04
   -.288E+03 -.221E+04 0.826E+03   0.287E+03 0.221E+04 -.824E+03   0.110E+01 0.634E+01 -.194E+01   -.127E-05 -.797E-05 0.119E-04
   -.641E+03 0.201E+04 0.920E+03   0.639E+03 -.200E+04 -.919E+03   0.147E+01 -.466E+01 -.138E+01   -.116E-05 0.101E-05 0.313E-05
   -.641E+03 0.201E+04 -.919E+03   0.640E+03 -.200E+04 0.918E+03   0.147E+01 -.466E+01 0.138E+01   0.106E-05 -.233E-05 -.111E-04
   0.151E+04 -.164E+04 -.828E+03   -.151E+04 0.163E+04 0.826E+03   -.455E+01 0.450E+01 0.191E+01   0.428E-05 -.117E-05 -.163E-04
   0.151E+04 -.164E+04 0.827E+03   -.151E+04 0.164E+04 -.825E+03   -.455E+01 0.450E+01 -.191E+01   0.626E-05 -.347E-05 0.162E-04
   0.140E+04 0.942E+03 -.119E+04   -.140E+04 -.941E+03 0.119E+04   -.222E+01 -.121E+01 0.825E+00   0.108E-04 0.148E-04 -.121E-04
   0.140E+04 0.942E+03 0.119E+04   -.140E+04 -.940E+03 -.119E+04   -.222E+01 -.121E+01 -.825E+00   0.132E-04 0.996E-05 0.681E-05
   -.155E+04 0.149E+04 0.941E+03   0.155E+04 -.149E+04 -.939E+03   0.425E+01 -.431E+01 -.251E+01   -.215E-04 0.138E-04 0.518E-06
   -.155E+04 0.149E+04 -.940E+03   0.155E+04 -.149E+04 0.938E+03   0.425E+01 -.431E+01 0.251E+01   -.171E-04 0.102E-04 -.547E-05
   -.147E+04 -.156E+04 0.921E+03   0.147E+04 0.155E+04 -.918E+03   0.330E+01 0.465E+01 -.276E+01   -.109E-04 -.617E-05 0.633E-05
   -.147E+04 -.156E+04 -.920E+03   0.147E+04 0.155E+04 0.917E+03   0.330E+01 0.465E+01 0.276E+01   -.754E-05 -.331E-05 -.818E-05
   0.403E+03 0.211E+04 0.939E+03   -.402E+03 -.210E+04 -.937E+03   -.961E+00 -.600E+01 -.256E+01   0.134E-04 0.276E-04 0.404E-06
   0.403E+03 0.211E+04 -.939E+03   -.402E+03 -.210E+04 0.937E+03   -.960E+00 -.600E+01 0.256E+01   0.116E-04 0.228E-04 -.664E-05
   0.209E+04 -.420E+03 0.919E+03   -.209E+04 0.418E+03 -.916E+03   -.545E+01 0.190E+01 -.282E+01   0.754E-05 0.427E-05 0.846E-05
   0.209E+04 -.419E+03 -.920E+03   -.209E+04 0.418E+03 0.917E+03   -.544E+01 0.189E+01 0.282E+01   0.545E-05 0.377E-05 -.826E-05
   -.217E+04 0.664E+03 0.403E+00   0.216E+04 -.661E+03 -.402E+00   0.693E+01 -.337E+01 -.177E-02   -.128E-04 0.165E-04 -.300E-05
   -.216E+04 -.684E+03 0.163E+00   0.215E+04 0.682E+03 -.164E+00   0.724E+01 0.245E+01 0.142E-02   -.824E-05 -.128E-05 -.244E-05
   0.215E+04 0.699E+03 -.358E+00   -.214E+04 -.697E+03 0.357E+00   -.733E+01 -.215E+01 0.134E-02   0.792E-05 0.739E-05 -.277E-06
   0.139E+04 0.180E+04 -.115E+00   -.139E+04 -.179E+04 0.115E+00   -.375E+01 -.677E+01 0.368E-03   0.337E-05 0.176E-04 -.345E-05
 -----------------------------------------------------------------------------------------------
   -.513E+00 0.252E+01 -.421E-03   0.182E-11 -.227E-12 -.389E-12   0.383E+00 -.280E+01 0.867E-03   -.903E-05 0.152E-03 -.512E-04
 
 
 POSITION                                       TOTAL-FORCE (eV/Angst)
 -----------------------------------------------------------------------------------
     14.40342     13.48175     12.60951        -0.001450      0.005861     -0.001143
     14.37091     13.49884     15.18350         0.005186      0.000382     -0.000107
     16.80936     14.25671     12.60436        -0.002653      0.005569     -0.000488
     16.81904     14.28316     15.18298        -0.003987     -0.000414     -0.000181
     15.04694     15.58503     13.92043         0.000851      0.002479     -0.002099
     15.06234     15.55648     11.43642        -0.000640      0.007320     -0.001384
     12.89951     15.53716     12.59601        -0.001433      0.005503     -0.000522
     16.83519     16.79145     12.59765        -0.001846      0.008447      0.001252
     14.41232     17.62516     12.65932        -0.000848      0.005133     -0.006280
     12.90341     15.52510     15.18397         0.000608     -0.002998      0.000067
     16.83223     16.77770     15.18315        -0.001884      0.005204     -0.000008
     14.35191     17.80042     15.18396         0.008720     -0.013221      0.000111
     14.40451     13.48128     17.75735        -0.000960      0.005660      0.001069
     16.81064     14.25592     17.76203        -0.002146      0.005233      0.000318
     15.04812     15.58473     16.44674         0.001479      0.002277      0.002086
     15.06587     15.55556     18.93080         0.001706      0.006981      0.001504
     12.90122     15.53642     17.77186        -0.000528      0.005091      0.000884
     16.83647     16.79135     17.76903        -0.001441      0.008677     -0.001356
     14.41320     17.62436     17.70863        -0.000608      0.004547      0.006381
     18.61007     15.49862     16.54015        -0.009328     -0.002664     -0.006756
     18.61004     15.49865     13.82569        -0.009044     -0.002686      0.006655
     16.19079     18.79458     16.43545        -0.000566      0.004072     -0.000206
     16.19063     18.79476     13.93178        -0.000580      0.003971      0.000163
     16.13338     12.20903     13.94073        -0.000859      0.001464     -0.003049
     16.13412     12.20885     16.42521        -0.000749      0.001403      0.002773
     12.28282     17.54359     16.43949         0.003544     -0.002925     -0.002457
     12.28230     17.54385     13.92894         0.003428     -0.002771      0.002642
     12.20550     13.45654     16.54179         0.004930     -0.000089     -0.004991
     12.20479     13.45696     13.82578         0.004422     -0.000012      0.004746
     18.47790     12.99879     13.95612        -0.005733     -0.003518     -0.001527
     18.47866     12.99883     16.40971        -0.005586     -0.003623      0.001302
     18.55816     17.99019     13.94945         0.004369     -0.002986      0.001565
     18.55834     17.99035     16.41682         0.004475     -0.002841     -0.001501
     13.76527     11.48536     13.95875         0.003750      0.001081     -0.000637
     13.76592     11.48504     16.40806         0.003880      0.000964      0.000466
     10.79563     15.52784     13.95178        -0.000562     -0.007157      0.000891
     10.79668     15.52737     16.41665         0.000203     -0.007450     -0.000365
     20.23155     14.25727     15.18275        -0.003844     -0.012370      0.000102
     20.25956     16.70978     15.18303         0.002891     -0.015470      0.000103
     10.15945     13.49593     15.18411        -0.000884     -0.008968      0.000074
     11.60554     11.50294     15.18374         0.003720     -0.005156     -0.000095
 -----------------------------------------------------------------------------------
    total drift:                               -0.129671     -0.276604      0.000396


--------------------------------------------------------------------------------------------------------



  FREE ENERGIE OF THE ION-ELECTRON SYSTEM (eV)
  ---------------------------------------------------
  free  energy   TOTEN  =      -121.89259230 eV

  energy  without entropy=     -121.89259230  energy(sigma->0) =     -121.89259230
 


--------------------------------------------------------------------------------------------------------


    POTLOK:  cpu time    1.5977: real time    1.5990


--------------------------------------------------------------------------------------------------------




--------------------------------------------------------------------------------------------------------


  
 reached required accuracy - stopping structural energy minimisation
     LOOP+:  cpu time 3615.5484: real time 3624.2169
    4ORBIT:  cpu time    0.0000: real time    0.0000
 


 total charge     
 
# of ion     s       p       d       tot
----------------------------------------
  1        0.458   0.270   9.205   9.933
  2        0.451   0.390   9.198  10.039
  3        0.459   0.270   9.205   9.934
  4        0.451   0.390   9.199  10.039
  5        0.437   0.379   9.215  10.031
  6        0.467   0.221   9.240   9.928
  7        0.458   0.271   9.207   9.936
  8        0.459   0.273   9.207   9.939
  9        0.461   0.241   9.219   9.921
 10        0.467   0.388   9.194  10.049
 11        0.467   0.387   9.195  10.048
 12        0.449   0.337   9.186   9.972
 13        0.458   0.270   9.205   9.933
 14        0.459   0.270   9.205   9.934
 15        0.437   0.379   9.215  10.031
 16        0.467   0.221   9.239   9.928
 17        0.458   0.271   9.207   9.936
 18        0.459   0.273   9.207   9.939
 19        0.461   0.241   9.219   9.921
 20        0.438   0.303   9.216   9.956
 21        0.438   0.303   9.216   9.956
 22        0.458   0.222   9.243   9.922
 23        0.458   0.222   9.243   9.922
 24        0.455   0.252   9.223   9.929
 25        0.455   0.252   9.223   9.929
 26        0.458   0.222   9.243   9.922
 27        0.458   0.222   9.243   9.922
 28        0.436   0.301   9.216   9.953
 29        0.436   0.301   9.216   9.953
 30        0.459   0.225   9.244   9.928
 31        0.459   0.225   9.244   9.928
 32        0.456   0.219   9.248   9.924
 33        0.456   0.219   9.248   9.924
 34        0.459   0.223   9.244   9.926
 35        0.459   0.223   9.244   9.926
 36        0.456   0.217   9.249   9.922
 37        0.456   0.218   9.249   9.922
 38        0.483   0.177   9.251   9.911
 39        0.486   0.182   9.246   9.915
 40        0.485   0.182   9.246   9.913
 41        0.482   0.176   9.251   9.909
------------------------------------------------
tot       18.767  10.827 378.209 407.804
 


 magnetization (x)
 
# of ion     s       p       d       tot
----------------------------------------
  1        0.000   0.003  -0.000   0.003
  2        0.010   0.000   0.011   0.021
  3        0.000   0.003  -0.000   0.003
  4        0.010   0.000   0.011   0.021
  5        0.008   0.002   0.013   0.022
  6        0.001   0.002  -0.002   0.002
  7        0.001   0.001   0.012   0.013
  8        0.001   0.001   0.012   0.013
  9        0.018   0.008   0.008   0.034
 10        0.004   0.004   0.005   0.013
 11        0.004   0.004   0.005   0.013
 12        0.001   0.008   0.011   0.020
 13        0.000   0.003  -0.000   0.003
 14        0.000   0.003  -0.000   0.003
 15        0.008   0.002   0.013   0.022
 16        0.001   0.002  -0.002   0.002
 17        0.001   0.001   0.012   0.013
 18        0.001   0.001   0.011   0.013
 19        0.017   0.008   0.008   0.034
 20        0.006  -0.000   0.003   0.008
 21        0.006  -0.000   0.003   0.008
 22        0.000   0.006   0.004   0.011
 23        0.000   0.006   0.004   0.011
 24       -0.000   0.003   0.000   0.003
 25       -0.000   0.003   0.000   0.003
 26        0.000   0.006   0.005   0.011
 27        0.000   0.006   0.005   0.011
 28        0.006  -0.000   0.003   0.008
 29        0.006  -0.000   0.003   0.008
 30        0.005   0.007   0.007   0.018
 31        0.005   0.007   0.007   0.019
 32        0.001   0.003   0.002   0.006
 33        0.001   0.003   0.002   0.006
 34        0.005   0.007   0.007   0.019
 35        0.005   0.007   0.007   0.019
 36        0.001   0.002   0.002   0.006
 37        0.001   0.002   0.002   0.006
 38        0.007   0.005   0.002   0.015
 39       -0.000   0.000   0.003   0.003
 40       -0.000   0.000   0.003   0.003
 41        0.007   0.005   0.002   0.015
------------------------------------------------
tot        0.144   0.135   0.203   0.482
 

 total amount of memory used by VASP on root node   232166. kBytes
========================================================================

   base      :      30000. kBytes
   nonl-proj :      21545. kBytes
   fftplans  :      31986. kBytes
   grid      :      81145. kBytes
   one-center:        108. kBytes
   wavefun   :      67382. kBytes
 
  
  
 General timing and accounting informations for this job:
 ========================================================
  
                  Total CPU time used (sec):     3642.318
                            User time (sec):     3590.619
                          System time (sec):       51.699
                         Elapsed time (sec):     3651.139
  
                   Maximum memory used (kb):      388124.
                   Average memory used (kb):           0.
  
                          Minor page faults:      5172844
                          Major page faults:            0
                 Voluntary context switches:         2572
