 vasp.5.4.1 05Feb16 (build Apr 11 2020 03:28:46) gamma-only                     
  
 executed on           IFC91_ompi date 2022.05.04  23:05:38
 running on   24 total cores
 distrk:  each k-point on   24 cores,    1 groups
 distr:  one band on NCORES_PER_BAND=   6 cores,    4 groups


--------------------------------------------------------------------------------------------------------


 INCAR:
 POTCAR:    PAW_PBE Cu 22Jun2005                  
 POTCAR:    PAW_PBE Cu 22Jun2005                  
   VRHFIN =Cu: d10 p1                                                           
   LEXCH  = PE                                                                  
   EATOM  =  1390.9808 eV,  102.2342 Ry                                         
                                                                                
   TITEL  = PAW_PBE Cu 22Jun2005                                                
   LULTRA =        F    use ultrasoft PP ?                                      
   IUNSCR =        1    unscreen: 0-lin 1-nonlin 2-no                           
   RPACOR =    2.000    partial core radius                                     
   POMASS =   63.546; ZVAL   =   11.000    mass and valenz                      
   RCORE  =    2.300    outmost cutoff radius                                   
   RWIGS  =    2.200; RWIGS  =    1.164    wigner-seitz radius (au A)           
   ENMAX  =  295.446; ENMIN  =  221.585 eV                                      
   ICORE  =        3    local potential                                         
   LCOR   =        T    correct aug charges                                     
   LPAW   =        T    paw PP                                                  
   EAUG   =  586.980                                                            
   DEXC   =    0.000                                                            
   RMAX   =    2.344    core radius for proj-oper                               
   RAUG   =    1.300    factor for augmentation sphere                          
   RDEP   =    2.302    radius for radial grids                                 
   RDEPT  =    1.771    core radius for aug-charge                              
                                                                                
   Atomic configuration                                                         
    9 entries                                                                   
     n  l   j            E        occ.                                          
     1  0  0.50     -8850.2468   2.0000                                         
     2  0  0.50     -1062.3498   2.0000                                         
     2  1  1.50      -916.8226   6.0000                                         
     3  0  0.50      -114.6929   2.0000                                         
     3  1  1.50       -72.1325   6.0000                                         
     3  2  2.50        -5.0394  10.0000                                         
     4  0  0.50        -4.6097   1.0000                                         
     4  1  0.50        -4.0817   0.0000                                         
     4  3  2.50        -1.3606   0.0000                                         
   Description                                                                  
     l       E           TYP  RCUT    TYP  RCUT                                 
     2     -5.0393973     23  2.200                                             
     2     10.8846608     23  2.200                                             
     0     -4.6097109     23  2.200                                             
     0      8.2520465     23  2.200                                             
     1     -2.7211652     23  2.200                                             
     1     21.7055443     23  2.200                                             
     3      2.7211652     23  2.300                                             
  local pseudopotential read in
  partial core-charges read in
  partial kinetic energy density read in
  atomic valenz-charges read in
  non local Contribution for L=           2  read in
    real space projection operators read in
  non local Contribution for L=           2  read in
    real space projection operators read in
  non local Contribution for L=           0  read in
    real space projection operators read in
  non local Contribution for L=           0  read in
    real space projection operators read in
  non local Contribution for L=           1  read in
    real space projection operators read in
  non local Contribution for L=           1  read in
    real space projection operators read in
    PAW grid and wavefunctions read in
 
   number of l-projection  operators is LMAX  =           6
   number of lm-projection operators is LMMAX =          18
 

 ----------------------------------------------------------------------------- 
|                                                                             |
|  ADVICE TO THIS USER RUNNING 'VASP/VAMP'   (HEAR YOUR MASTER'S VOICE ...):  |
|                                                                             |
|      You have a (more or less) 'large supercell' and for larger cells       |
|      it might be more efficient to use real space projection opertators     |
|      So try LREAL= Auto  in the INCAR   file.                               |
|      Mind: At the moment your POTCAR file does not contain real space       |
|       projectors, and has to be modified,  BUT if you                       |
|      want to do an extremely  accurate calculation you might also keep the  |
|      reciprocal projection scheme          (i.e. LREAL=.FALSE.)             |
|                                                                             |
 ----------------------------------------------------------------------------- 

  PAW_PBE Cu 22Jun2005                  :
 energy of atom  1       EATOM=-1390.9808
 kinetic energy error for atom=    0.0452 (will be added to EATOM!!)
 
 
 POSCAR: Cu-43-6 <s> Cu </s>                     
  positions in direct lattice
  velocities in cartesian coordinates
 exchange correlation table for  LEXCH =        8
   RHO(1)=    0.500       N(1)  =     2000
   RHO(2)=  100.500       N(2)  =     4000
 


--------------------------------------------------------------------------------------------------------


 ion  position               nearest neighbor table
   1  0.506  0.500  0.510-   3 2.34   9 2.34  18 2.38  20 2.38   5 2.38   7 2.38  12 2.42  16 2.42
                            14 2.43  22 2.43  11 2.54   2 2.54
   2  0.506  0.500  0.601-   1 2.54  28 2.58  25 2.58   5 2.62   7 2.62   9 2.64   3 2.64  11 2.66
                            24 2.67  27 2.67  26 2.74
   3  0.528  0.427  0.545-   4 2.28  25 2.31   1 2.34  30 2.40  24 2.40   5 2.48  20 2.48  12 2.49
                            29 2.52  31 2.52   2 2.64  11 2.64
   4  0.545  0.353  0.574-   3 2.28  25 2.66  24 2.69  30 2.70  29 2.72  31 2.73
   5  0.444  0.456  0.547-   6 2.26   1 2.38  26 2.40  24 2.42   3 2.48   7 2.48  29 2.51  33 2.52
                            32 2.52  14 2.52  12 2.54   2 2.62
   6  0.383  0.410  0.575-   5 2.26  33 2.67  29 2.76
   7  0.444  0.544  0.547-   8 2.26   1 2.38  26 2.40  27 2.42   9 2.48   5 2.48  34 2.51  35 2.52
                            32 2.52  14 2.52  16 2.54   2 2.62
   8  0.383  0.590  0.575-   7 2.26  35 2.67  34 2.75
   9  0.527  0.573  0.545-  10 2.28  28 2.31   1 2.34  36 2.40  27 2.40   7 2.48  18 2.48  16 2.49
                            34 2.52  37 2.52   2 2.64  11 2.65
  10  0.545  0.647  0.574-   9 2.28  28 2.66  36 2.70  27 2.70  34 2.73  37 2.73
  11  0.587  0.500  0.551-   1 2.54  28 2.59  25 2.59  18 2.62  20 2.62   3 2.64   9 2.65   2 2.66
                            30 2.67  36 2.67  38 2.72
  12  0.481  0.428  0.469-  13 2.27   1 2.42  31 2.44  29 2.45  33 2.47  14 2.47  22 2.47  40 2.47
                            39 2.48   3 2.49  20 2.53   5 2.54
  13  0.460  0.358  0.434-  12 2.27  31 2.67  29 2.68
  14  0.429  0.500  0.470-  15 2.26  32 2.42   1 2.43  33 2.45  35 2.45  41 2.46  39 2.46  16 2.47
                            12 2.47  22 2.50   7 2.52   5 2.52
  15  0.357  0.500  0.432-  14 2.26  32 2.75  41 2.77  39 2.77
  16  0.481  0.572  0.469-  17 2.27   1 2.42  37 2.44  34 2.45  14 2.47  35 2.47  22 2.47  42 2.47
                            41 2.48   9 2.49  18 2.53   7 2.54
  17  0.460  0.642  0.435-  16 2.27  37 2.67  34 2.68
  18  0.567  0.545  0.471-  19 2.26   1 2.38  38 2.40  36 2.41   9 2.48  20 2.49  37 2.51  42 2.51
                            43 2.52  22 2.52  16 2.53  11 2.62
  19  0.621  0.588  0.429-  18 2.26  42 2.68  38 2.76
  20  0.567  0.455  0.471-  21 2.26   1 2.38  38 2.40  30 2.41   3 2.48  18 2.49  31 2.51  40 2.51
                            43 2.52  22 2.52  12 2.53  11 2.62
  21  0.621  0.412  0.429-  20 2.26  40 2.68  38 2.77
  22  0.505  0.500  0.423-  23 2.27  43 2.42   1 2.43  42 2.45  40 2.45  41 2.47  39 2.47  16 2.47
                            12 2.47  14 2.50  20 2.52  18 2.52
  23  0.501  0.500  0.342-  22 2.27  39 2.73  41 2.73
  24  0.477  0.409  0.612-   3 2.40   5 2.42  29 2.61   2 2.67   4 2.69  25 2.71
  25  0.571  0.435  0.615-   3 2.31   2 2.58  11 2.59   4 2.66  30 2.71  24 2.71
  26  0.409  0.500  0.612-   7 2.40   5 2.40  32 2.57   2 2.74
  27  0.477  0.590  0.612-   9 2.40   7 2.42  34 2.61   2 2.67  10 2.70  28 2.71
  28  0.571  0.565  0.615-   9 2.31   2 2.58  11 2.59  10 2.66  36 2.71  27 2.71
  29  0.460  0.369  0.530-  12 2.45   5 2.51   3 2.52  24 2.61  13 2.68  33 2.71   4 2.72   6 2.76
                            31 2.76
  30  0.610  0.409  0.530-   3 2.40  20 2.41  31 2.61  11 2.67   4 2.70  25 2.71
  31  0.544  0.369  0.478-  12 2.44  20 2.51   3 2.52  30 2.61  13 2.67  40 2.72   4 2.73  29 2.76

  32  0.367  0.500  0.530-  14 2.42   7 2.52   5 2.52  26 2.57  35 2.72  33 2.72  15 2.75
  33  0.394  0.420  0.481-  14 2.45  12 2.47   5 2.52   6 2.67  29 2.71  32 2.72
  34  0.460  0.631  0.530-  16 2.45   7 2.51   9 2.52  27 2.61  17 2.68  35 2.71  10 2.73   8 2.75
                            37 2.76
  35  0.394  0.580  0.481-  14 2.45  16 2.47   7 2.52   8 2.67  34 2.71  32 2.72
  36  0.610  0.591  0.530-   9 2.40  18 2.41  37 2.61  11 2.67  10 2.70  28 2.71
  37  0.544  0.631  0.478-  16 2.44  18 2.51   9 2.52  36 2.61  17 2.67  42 2.72  10 2.73  34 2.76

  38  0.641  0.500  0.469-  20 2.40  18 2.40  43 2.56  11 2.72  19 2.76  21 2.77
  39  0.436  0.452  0.396-  14 2.46  22 2.47  12 2.48  41 2.67  23 2.73  15 2.77
  40  0.531  0.421  0.396-  22 2.45  12 2.47  20 2.51  21 2.68  43 2.72  31 2.72
  41  0.436  0.548  0.396-  14 2.46  22 2.47  16 2.48  39 2.67  23 2.73  15 2.77
  42  0.531  0.579  0.396-  22 2.45  16 2.47  18 2.51  19 2.68  43 2.72  37 2.72
  43  0.587  0.500  0.395-  22 2.42  20 2.52  18 2.52  38 2.56  42 2.72  40 2.72
 
  LATTYP: Found a simple cubic cell.
 ALAT       =    27.9225820236
  
  Lattice vectors:
  
 A1 = (  27.9225820236,   0.0000000000,   0.0000000000)
 A2 = (   0.0000000000,  27.9225820236,   0.0000000000)
 A3 = (   0.0000000000,   0.0000000000,  27.9225820236)


Analysis of symmetry for initial positions (statically):
=====================================================================
 Subroutine PRICEL returns:
 Original cell was already a primitive cell.
 

 Routine SETGRP: Setting up the symmetry group for a 
 simple cubic supercell.


 Subroutine GETGRP returns: Found  1 space group operations
 (whereof  1 operations were pure point group operations)
 out of a pool of 48 trial point group operations.


The static configuration has the point symmetry C_1 .


Analysis of symmetry for dynamics (positions and initial velocities):
=====================================================================
 Subroutine PRICEL returns:
 Original cell was already a primitive cell.
 

 Routine SETGRP: Setting up the symmetry group for a 
 simple cubic supercell.


 Subroutine GETGRP returns: Found  1 space group operations
 (whereof  1 operations were pure point group operations)
 out of a pool of 48 trial point group operations.


The dynamic configuration has the point symmetry C_1 .


Analysis of structural, dynamic, and magnetic symmetry:
=====================================================================
 Subroutine PRICEL returns:
 Original cell was already a primitive cell.
 

 Routine SETGRP: Setting up the symmetry group for a 
 simple cubic supercell.


 Subroutine GETGRP returns: Found  1 space group operations
 (whereof  1 operations were pure point group operations)
 out of a pool of 48 trial point group operations.


The magnetic configuration has the point symmetry C_1 .


 Subroutine INISYM returns: Found  1 space group operations
 (whereof  1 operations are pure point group operations),
 and found     1 'primitive' translations

 
 
 KPOINTS: Gamma-point only                        
  k-points in reciprocal lattice
Space group operators:
 irot       det(A)        alpha          n_x          n_y          n_z        tau_x        tau_y        tau_z
    1     1.000000     0.000001     1.000000     0.000000     0.000000     0.000000     0.000000     0.000000


--------------------------------------------------------------------------------------------------------




 Dimension of arrays:
   k-points           NKPTS =      1   k-points in BZ     NKDIM =      1   number of bands    NBANDS=    308
   number of dos      NEDOS =    301   number of ions     NIONS =     43
   non local maximal  LDIM  =      6   non local SUM 2l+1 LMDIM =     18
   total plane-waves  NPLWV = ******
   max r-space proj   IRMAX =      1   max aug-charges    IRDMAX=   2498
   dimension x,y,z NGX =   120 NGY =  120 NGZ =  120
   dimension x,y,z NGXF=   240 NGYF=  240 NGZF=  240
   support grid    NGXF=   240 NGYF=  240 NGZF=  240
   ions per type =              43
 NGX,Y,Z   is equivalent  to a cutoff of   7.14,  7.14,  7.14 a.u.
 NGXF,Y,Z  is equivalent  to a cutoff of  14.29, 14.29, 14.29 a.u.


 I would recommend the setting:
   dimension x,y,z NGX =   117 NGY =  117 NGZ =  117
 SYSTEM =  unknown system                          
 POSCAR =  Cu-43-6 <s> Cu </s>                     

 Startparameter for this run:
   NWRITE =      2    write-flag & timer
   PREC   = normal    normal or accurate (medium, high low for compatibility)
   ISTART =      0    job   : 0-new  1-cont  2-samecut
   ICHARG =      2    charge: 1-file 2-atom 10-const
   ISPIN  =      2    spin polarized calculation?
   LNONCOLLINEAR =      F non collinear calculations
   LSORBIT =      F    spin-orbit coupling
   INIWAV =      1    electr: 0-lowe 1-rand  2-diag
   LASPH  =      F    aspherical Exc in radial PAW
   METAGGA=      F    non-selfconsistent MetaGGA calc.

 Electronic Relaxation 1
   ENCUT  =  295.4 eV  21.71 Ry    4.66 a.u.  39.13 39.13 39.13*2*pi/ulx,y,z
   ENINI  =  295.4     initial cutoff
   ENAUG  =  587.0 eV  augmentation charge cutoff
   NELM   =     60;   NELMIN=  2; NELMDL=-12     # of ELM steps 
   EDIFF  = 0.1E-05   stopping-criterion for ELM
   LREAL  =      F    real-space projection
   NLSPLINE    = F    spline interpolate recip. space projectors
   LCOMPAT=      F    compatible to vasp.4.4
   GGA_COMPAT  = T    GGA compatible to vasp.4.4-vasp.4.6
   LMAXPAW     = -100 max onsite density
   LMAXMIX     =    2 max onsite mixed and CHGCAR
   VOSKOWN=      0    Vosko Wilk Nusair interpolation
   ROPT   =    0.00000
 Ionic relaxation
   EDIFFG = -.3E-01   stopping-criterion for IOM
   NSW    =   1000    number of steps for IOM
   NBLOCK =      1;   KBLOCK =   1000    inner block; outer block 
   IBRION =      2    ionic relax: 0-MD 1-quasi-New 2-CG
   NFREE  =      1    steps in history (QN), initial steepest desc. (CG)
   ISIF   =      2    stress and relaxation
   IWAVPR =     11    prediction:  0-non 1-charg 2-wave 3-comb
   ISYM   =      2    0-nonsym 1-usesym 2-fastsym
   LCORR  =      T    Harris-Foulkes like correction to forces

   POTIM  = 0.5000    time-step for ionic-motion
   TEIN   =    0.0    initial temperature
   TEBEG  =    0.0;   TEEND  =   0.0 temperature during run
   SMASS  =  -3.00    Nose mass-parameter (am)
   estimated Nose-frequenzy (Omega)   =  0.10E-29 period in steps =****** mass=  -0.178E-25a.u.
   SCALEE = 1.0000    scale energy and forces
   NPACO  =    256;   APACO  = 16.0  distance and # of slots for P.C.
   PSTRESS=    0.0 pullay stress

  Mass of Ions in am
   POMASS =  63.55
  Ionic Valenz
   ZVAL   =  11.00
  Atomic Wigner-Seitz radii
   RWIGS  =  -1.00
  virtual crystal weights 
   VCA    =   1.00
   NELECT =     473.0000    total number of electrons
   NUPDOWN=      -1.0000    fix difference up-down

 DOS related values:
   EMIN   =  10.00;   EMAX   =-10.00  energy-range for DOS
   EFERMI =   0.00
   ISMEAR =     0;   SIGMA  =   0.00  broadening in eV -4-tet -1-fermi 0-gaus

 Electronic relaxation 2 (details)
   IALGO  =     48    algorithm
   LDIAG  =      T    sub-space diagonalisation (order eigenvalues)
   LSUBROT=      F    optimize rotation matrix (better conditioning)
   TURBO    =      0    0=normal 1=particle mesh
   IRESTART =      0    0=no restart 2=restart with 2 vectors
   NREBOOT  =      0    no. of reboots
   NMIN     =      0    reboot dimension
   EREF     =   0.00    reference energy to select bands
   IMIX   =      4    mixing-type and parameters
     AMIX     =   0.40;   BMIX     =  1.00
     AMIX_MAG =   1.60;   BMIX_MAG =  1.00
     AMIN     =   0.10
     WC   =   100.;   INIMIX=   1;  MIXPRE=   1;  MAXMIX= -45

 Intra band minimization:
   WEIMIN = 0.0010     energy-eigenvalue tresh-hold
   EBREAK =  0.81E-09  absolut break condition
   DEPER  =   0.30     relativ break condition  

   TIME   =   0.40     timestep for ELM

  volume/ion in A,a.u.               =     506.29      3416.61
  Fermi-wavevector in a.u.,A,eV,Ry     =   0.456814  0.863254  2.839254  0.208679
  Thomas-Fermi vector in A             =   1.441198
 
 Write flags
   LWAVE  =      F    write WAVECAR
   LCHARG =      F    write CHGCAR
   LVTOT  =      F    write LOCPOT, total local potential
   LVHAR  =      F    write LOCPOT, Hartree potential only
   LELF   =      F    write electronic localiz. function (ELF)
   LORBIT =     11    0 simple, 1 ext, 2 COOP (PROOUT)


 Dipole corrections
   LMONO  =      F    monopole corrections only (constant potential shift)
   LDIPOL =      F    correct potential (dipole corrections)
   IDIPOL =      0    1-x, 2-y, 3-z, 4-all directions 
   EPSILON=  1.0000000 bulk dielectric constant

 Exchange correlation treatment:
   GGA     =    PE    GGA type
   LEXCH   =     8    internal setting for exchange type
   VOSKOWN=      0    Vosko Wilk Nusair interpolation
   LHFCALC =     F    Hartree Fock is set to
   LHFONE  =     F    Hartree Fock one center treatment
   AEXX    =    0.0000 exact exchange contribution

 Linear response parameters
   LEPSILON=     F    determine dielectric tensor
   LRPA    =     F    only Hartree local field effects (RPA)
   LNABLA  =     F    use nabla operator in PAW spheres
   LVEL    =     F    velocity operator in full k-point grid
   LINTERFAST=   F  fast interpolation
   KINTER  =     0    interpolate to denser k-point grid
   CSHIFT  =0.1000    complex shift for real part using Kramers Kronig
   OMEGAMAX=  -1.0    maximum frequency
   DEG_THRESHOLD= 0.2000000E-02 threshold for treating states as degnerate
   RTIME   =    0.100 relaxation time in fs

 Orbital magnetization related:
   ORBITALMAG=     F  switch on orbital magnetization
   LCHIMAG   =     F  perturbation theory with respect to B field
   DQ        =  0.001000  dq finite difference perturbation B field



--------------------------------------------------------------------------------------------------------


 conjugate gradient relaxation of ions
 charge density and potential will be updated during run
 spin polarized calculation
 RMM-DIIS sequential band-by-band
 perform sub-space diagonalisation
    before iterative eigenvector-optimisation
 modified Broyden-mixing scheme, WC =      100.0
 initial mixing is a Kerker type mixing with AMIX =  0.4000 and BMIX =      1.0000
 Hartree-type preconditioning will be used
 using additional bands           71
 reciprocal scheme for non local part
 use partial core corrections
 calculate Harris-corrections to forces 
   (improved forces if not selfconsistent)
 use gradient corrections 
 use of overlap-Matrix (Vanderbilt PP)
 Gauss-broadening in eV      SIGMA  =   0.00


--------------------------------------------------------------------------------------------------------


  energy-cutoff  :      295.45
  volume of cell :    21770.42
      direct lattice vectors                 reciprocal lattice vectors
    27.922582024  0.000000000  0.000000000     0.035813307  0.000000000  0.000000000
     0.000000000 27.922582024  0.000000000     0.000000000  0.035813307  0.000000000
     0.000000000  0.000000000 27.922582024     0.000000000  0.000000000  0.035813307

  length of vectors
    27.922582024 27.922582024 27.922582024     0.035813307  0.035813307  0.035813307


 
 k-points in units of 2pi/SCALE and weight: Gamma-point only                        
   0.00000000  0.00000000  0.00000000       1.000
 
 k-points in reciprocal lattice and weights: Gamma-point only                        
   0.00000000  0.00000000  0.00000000       1.000
 
 position of ions in fractional coordinates (direct lattice) 
   0.50625104  0.50000171  0.50999997
   0.50642044  0.49999113  0.60098667
   0.52753343  0.42689691  0.54478135
   0.54549118  0.35283292  0.57423034
   0.44360228  0.45559052  0.54727311
   0.38286422  0.41007273  0.57532877
   0.44355547  0.54435667  0.54726913
   0.38277881  0.58981553  0.57533193
   0.52744350  0.57312411  0.54480697
   0.54541398  0.64718142  0.57425581
   0.58745151  0.50002281  0.55073396
   0.48083076  0.42840173  0.46867390
   0.45964269  0.35789382  0.43445318
   0.42901631  0.49997603  0.46989809
   0.35712466  0.50000398  0.43243848
   0.48075463  0.57159782  0.46867248
   0.45958971  0.64217052  0.43456973
   0.56740788  0.54462064  0.47079437
   0.62107656  0.58819479  0.42878113
   0.56743734  0.45542889  0.47076925
   0.62105172  0.41186598  0.42864976
   0.50521620  0.50001481  0.42282189
   0.50146405  0.49999990  0.34169194
   0.47727420  0.40948044  0.61228097
   0.57081473  0.43523855  0.61490206
   0.40884610  0.49997023  0.61206934
   0.47716516  0.59046489  0.61230332
   0.57076709  0.56478802  0.61490151
   0.46014677  0.36889524  0.52979274
   0.61023260  0.40940278  0.53013198
   0.54431437  0.36884646  0.47772661
   0.36679702  0.49996718  0.53028361
   0.39370751  0.42039757  0.48100013
   0.45998328  0.63105671  0.52981961
   0.39361274  0.57953002  0.48099646
   0.61013296  0.59069243  0.53018364
   0.54419535  0.63119555  0.47778365
   0.64102887  0.50002607  0.46917473
   0.43596127  0.45222228  0.39603213
   0.53115927  0.42061465  0.39617855
   0.43589655  0.54770873  0.39603383
   0.53114371  0.57942135  0.39622488
   0.58740208  0.50002551  0.39496805
 
 position of ions in cartesian coordinates  (Angst):
  14.13583617 13.96133867 14.24051608
  14.14056639 13.96104338 16.78109954
  14.73009557 11.92006386 15.21170195
  15.23152212  9.85200604 16.03399379
  12.38652118 12.72126357 15.28127825
  10.69055752 11.45028931 16.06466479
  12.38521395 15.19984368 15.28116711
  10.68817265 16.46917247 16.06475303
  14.72758452 16.00310506 15.21241723
  15.22936672 18.07097639 16.03470492
  16.40316289 13.96192800 15.37791417
  13.42603644 11.96208233 13.08658529
  12.83441075  9.99331957 12.13105443
  11.97924311 13.96062181 13.12076809
   9.97184262 13.96140201 12.07479894
  13.42391065 15.96048693 13.08654579
  12.83293141 17.93105889 12.13430906
  15.84349299 15.20721459 13.14579448
  17.34206121 16.42391713 11.97267634
  15.84431569 12.71675050 13.14509297
  17.34136763 11.50036167 11.96900808
  14.10694077 13.96170461 11.80627886
  14.00217098 13.96128811  9.54092115
  13.32672794 11.43375131 17.09646571
  15.93862103 12.15298398 17.16965313
  11.41603870 13.96045980 17.09055629
  13.32368318 16.48730436 17.09708960
  15.93729078 15.77033976 17.16963785
  12.84848595 10.30050773 14.79318115
  17.03926988 11.43158281 14.80265357
  15.19866267 10.29914540 13.33936040
  10.24191991 13.96037463 14.80688770
  10.99333021 11.73858552 13.43076554
  12.84392085 17.62073270 14.79393162
  10.99068409 16.18197446 13.43066308
  17.03648772 16.49365794 14.80409607
  15.19533922 17.62460947 13.34095322
  17.89918118 13.96201884 13.10056999
  12.17316427 12.62721374 11.05823951
  14.83133827 11.74464696 11.06232814
  12.17135719 15.29344200 11.05828704
  14.83090373 16.17894030 11.06362165
  16.40178279 13.96200319 11.02852790
 


--------------------------------------------------------------------------------------------------------


 use parallel FFT for wavefunctions z direction half grid
 k-point  1 :   0.0000 0.0000 0.0000  plane waves:  125720

 maximum and minimum number of plane-waves per node :     20959    20949

 maximum number of plane-waves:    125720
 maximum index in each direction: 
   IXMAX=   39   IYMAX=   39   IZMAX=   39
   IXMIN=  -39   IYMIN=  -39   IZMIN=    0

 WARNING: aliasing errors must be expected set NGX to 158 to avoid them
 WARNING: aliasing errors must be expected set NGY to 158 to avoid them
 WARNING: aliasing errors must be expected set NGZ to 158 to avoid them
 aliasing errors are usually negligible using standard VASP settings
 and one can safely disregard these warnings

 parallel 3D FFT for wavefunctions:
    minimum data exchange during FFTs selected (reduces bandwidth)
 parallel 3D FFT for charge:
    minimum data exchange during FFTs selected (reduces bandwidth)


 total amount of memory used by VASP on root node   189908. kBytes
========================================================================

   base      :      30000. kBytes
   nonl-proj :      17438. kBytes
   fftplans  :      25667. kBytes
   grid      :      64857. kBytes
   one-center:        124. kBytes
   wavefun   :      51822. kBytes
 
     INWAV:  cpu time    0.0000: real time    0.0003
 Broyden mixing: mesh for mixing (old mesh)
   NGX = 79   NGY = 79   NGZ = 79
  (NGX  =240   NGY  =240   NGZ  =240)
  gives a total of 493039 points

 initial charge density was supplied:
 charge density of overlapping atoms calculated
 number of electron     473.0000000 magnetization      43.0000000
 keeping initial charge density in first step


--------------------------------------------------------------------------------------------------------


 Maximum index for augmentation-charges          213 (set IRDMAX)


--------------------------------------------------------------------------------------------------------


 First call to EWALD:  gamma=   0.063
 Maximum number of real-space cells 3x 3x 3
 Maximum number of reciprocal cells 3x 3x 3

 FEWALD executed in parallel
    FEWALD:  cpu time    0.0026: real time    0.0026


----------------------------------------- Iteration    1(   1)  ---------------------------------------


    POTLOK:  cpu time    1.1186: real time    1.1204
    SETDIJ:  cpu time    0.0201: real time    0.0208
    EDDIAG:  cpu time    3.0521: real time    3.0611
  RMM-DIIS:  cpu time   20.6614: real time   20.7372
    ORTHCH:  cpu time    0.2538: real time    0.2542
       DOS:  cpu time    0.0002: real time    0.0002
    --------------------------------------------
      LOOP:  cpu time   25.1098: real time   25.1998

 eigenvalue-minimisations  :   616
 total energy-change (2. order) : 0.4544656E+04  (-0.6452154E+04)
 number of electron     473.0000000 magnetization      43.0000000
 augmentation part      473.0000000 magnetization      43.0000000

 Free energy of the ion-electron system (eV)
  ---------------------------------------------------
  alpha Z        PSCENC =        62.11298607
  Ewald energy   TEWEN  =    200000.73703781
  -Hartree energ DENC   =   -254428.70631852
  -exchange      EXHF   =         0.00000000
  -V(xc)+E(xc)   XCENC  =      1947.54388470
  PAW double counting   =     52808.19233011   -57358.60005557
  entropy T*S    EENTRO =        -0.00000000
  eigenvalues    EBANDS =      1703.14571104
  atomic energy  EATOM  =     59810.23014029
  Solvation  Ediel_sol  =         0.00000000
  ---------------------------------------------------
  free energy    TOTEN  =      4544.65571592 eV

  energy without entropy =     4544.65571592  energy(sigma->0) =     4544.65571592


--------------------------------------------------------------------------------------------------------




----------------------------------------- Iteration    1(   2)  ---------------------------------------


    EDDIAG:  cpu time    2.9624: real time    3.4490
  RMM-DIIS:  cpu time   21.7047: real time   21.7470
    ORTHCH:  cpu time    0.2486: real time    0.2487
       DOS:  cpu time    0.0002: real time    0.0002
    --------------------------------------------
      LOOP:  cpu time   24.9194: real time   25.4512

 eigenvalue-minimisations  :   616
 total energy-change (2. order) :-0.1667863E+04  (-0.1839465E+04)
 number of electron     473.0000000 magnetization      43.0000000
 augmentation part      473.0000000 magnetization      43.0000000

 Free energy of the ion-electron system (eV)
  ---------------------------------------------------
  alpha Z        PSCENC =        62.11298607
  Ewald energy   TEWEN  =    200000.73703781
  -Hartree energ DENC   =   -254428.70631852
  -exchange      EXHF   =         0.00000000
  -V(xc)+E(xc)   XCENC  =      1947.54388470
  PAW double counting   =     52808.19233011   -57358.60005557
  entropy T*S    EENTRO =        -0.00000000
  eigenvalues    EBANDS =        35.28284809
  atomic energy  EATOM  =     59810.23014029
  Solvation  Ediel_sol  =         0.00000000
  ---------------------------------------------------
  free energy    TOTEN  =      2876.79285297 eV

  energy without entropy =     2876.79285297  energy(sigma->0) =     2876.79285297


--------------------------------------------------------------------------------------------------------




----------------------------------------- Iteration    1(   3)  ---------------------------------------


    EDDIAG:  cpu time    3.0542: real time    3.0621
  RMM-DIIS:  cpu time   21.5992: real time   21.6771
    ORTHCH:  cpu time    0.2618: real time    0.2619
       DOS:  cpu time    0.0002: real time    0.0002
    --------------------------------------------
      LOOP:  cpu time   24.9185: real time   25.0072

 eigenvalue-minimisations  :   616
 total energy-change (2. order) :-0.1085753E+04  (-0.1354006E+04)
 number of electron     473.0000000 magnetization      43.0000000
 augmentation part      473.0000000 magnetization      43.0000000

 Free energy of the ion-electron system (eV)
  ---------------------------------------------------
  alpha Z        PSCENC =        62.11298607
  Ewald energy   TEWEN  =    200000.73703781
  -Hartree energ DENC   =   -254428.70631852
  -exchange      EXHF   =         0.00000000
  -V(xc)+E(xc)   XCENC  =      1947.54388470
  PAW double counting   =     52808.19233011   -57358.60005557
  entropy T*S    EENTRO =        -0.00000000
  eigenvalues    EBANDS =     -1050.46967771
  atomic energy  EATOM  =     59810.23014029
  Solvation  Ediel_sol  =         0.00000000
  ---------------------------------------------------
  free energy    TOTEN  =      1791.04032717 eV

  energy without entropy =     1791.04032717  energy(sigma->0) =     1791.04032717


--------------------------------------------------------------------------------------------------------




----------------------------------------- Iteration    1(   4)  ---------------------------------------


    EDDIAG:  cpu time    3.0566: real time    3.0667
  RMM-DIIS:  cpu time   21.6624: real time   21.7099
    ORTHCH:  cpu time    0.2619: real time    0.2620
       DOS:  cpu time    0.0002: real time    0.0002
    --------------------------------------------
      LOOP:  cpu time   24.9842: real time   25.0449

 eigenvalue-minimisations  :   616
 total energy-change (2. order) :-0.9047476E+03  (-0.8692320E+03)
 number of electron     473.0000000 magnetization      43.0000000
 augmentation part      473.0000000 magnetization      43.0000000

 Free energy of the ion-electron system (eV)
  ---------------------------------------------------
  alpha Z        PSCENC =        62.11298607
  Ewald energy   TEWEN  =    200000.73703781
  -Hartree energ DENC   =   -254428.70631852
  -exchange      EXHF   =         0.00000000
  -V(xc)+E(xc)   XCENC  =      1947.54388470
  PAW double counting   =     52808.19233011   -57358.60005557
  entropy T*S    EENTRO =         0.00000000
  eigenvalues    EBANDS =     -1955.21728246
  atomic energy  EATOM  =     59810.23014029
  Solvation  Ediel_sol  =         0.00000000
  ---------------------------------------------------
  free energy    TOTEN  =       886.29272242 eV

  energy without entropy =      886.29272242  energy(sigma->0) =      886.29272242


--------------------------------------------------------------------------------------------------------




----------------------------------------- Iteration    1(   5)  ---------------------------------------


    EDDIAG:  cpu time    3.0652: real time    3.0688
  RMM-DIIS:  cpu time   22.7155: real time   22.7984
    ORTHCH:  cpu time    0.2528: real time    0.2529
       DOS:  cpu time    0.0005: real time    0.0005
    --------------------------------------------
      LOOP:  cpu time   26.0372: real time   26.1266

 eigenvalue-minimisations  :   616
 total energy-change (2. order) :-0.4796057E+03  (-0.3941948E+03)
 number of electron     473.0000000 magnetization      43.0000000
 augmentation part      473.0000000 magnetization      43.0000000

 Free energy of the ion-electron system (eV)
  ---------------------------------------------------
  alpha Z        PSCENC =        62.11298607
  Ewald energy   TEWEN  =    200000.73703781
  -Hartree energ DENC   =   -254428.70631852
  -exchange      EXHF   =         0.00000000
  -V(xc)+E(xc)   XCENC  =      1947.54388470
  PAW double counting   =     52808.19233011   -57358.60005557
  entropy T*S    EENTRO =        -0.00005563
  eigenvalues    EBANDS =     -2434.82291201
  atomic energy  EATOM  =     59810.23014029
  Solvation  Ediel_sol  =         0.00000000
  ---------------------------------------------------
  free energy    TOTEN  =       406.68703724 eV

  energy without entropy =      406.68709288  energy(sigma->0) =      406.68706506


--------------------------------------------------------------------------------------------------------




----------------------------------------- Iteration    1(   6)  ---------------------------------------


    EDDIAG:  cpu time    3.0537: real time    3.0599
  RMM-DIIS:  cpu time   23.2950: real time   23.3421
    ORTHCH:  cpu time    0.2544: real time    0.2546
       DOS:  cpu time    0.0001: real time    0.0001
    --------------------------------------------
      LOOP:  cpu time   26.6065: real time   26.6629

 eigenvalue-minimisations  :   616
 total energy-change (2. order) :-0.2765734E+03  (-0.2037884E+03)
 number of electron     473.0000000 magnetization      43.0000000
 augmentation part      473.0000000 magnetization      43.0000000

 Free energy of the ion-electron system (eV)
  ---------------------------------------------------
  alpha Z        PSCENC =        62.11298607
  Ewald energy   TEWEN  =    200000.73703781
  -Hartree energ DENC   =   -254428.70631852
  -exchange      EXHF   =         0.00000000
  -V(xc)+E(xc)   XCENC  =      1947.54388470
  PAW double counting   =     52808.19233011   -57358.60005557
  entropy T*S    EENTRO =         0.00000000
  eigenvalues    EBANDS =     -2711.39638655
  atomic energy  EATOM  =     59810.23014029
  Solvation  Ediel_sol  =         0.00000000
  ---------------------------------------------------
  free energy    TOTEN  =       130.11361833 eV

  energy without entropy =      130.11361833  energy(sigma->0) =      130.11361833


--------------------------------------------------------------------------------------------------------




----------------------------------------- Iteration    1(   7)  ---------------------------------------


    EDDIAG:  cpu time    3.0612: real time    3.0641
  RMM-DIIS:  cpu time   23.3491: real time   23.4010
    ORTHCH:  cpu time    0.2525: real time    0.2531
       DOS:  cpu time    0.0002: real time    0.0002
    --------------------------------------------
      LOOP:  cpu time   26.6659: real time   26.7242

 eigenvalue-minimisations  :   616
 total energy-change (2. order) :-0.1071204E+03  (-0.1093668E+03)
 number of electron     473.0000000 magnetization      43.0000000
 augmentation part      473.0000000 magnetization      43.0000000

 Free energy of the ion-electron system (eV)
  ---------------------------------------------------
  alpha Z        PSCENC =        62.11298607
  Ewald energy   TEWEN  =    200000.73703781
  -Hartree energ DENC   =   -254428.70631852
  -exchange      EXHF   =         0.00000000
  -V(xc)+E(xc)   XCENC  =      1947.54388470
  PAW double counting   =     52808.19233011   -57358.60005557
  entropy T*S    EENTRO =        -0.00000000
  eigenvalues    EBANDS =     -2818.51679865
  atomic energy  EATOM  =     59810.23014029
  Solvation  Ediel_sol  =         0.00000000
  ---------------------------------------------------
  free energy    TOTEN  =        22.99320623 eV

  energy without entropy =       22.99320623  energy(sigma->0) =       22.99320623


--------------------------------------------------------------------------------------------------------




----------------------------------------- Iteration    1(   8)  ---------------------------------------


    EDDIAG:  cpu time    3.0530: real time    3.0633
  RMM-DIIS:  cpu time   20.8385: real time   20.9141
    ORTHCH:  cpu time    0.2512: real time    0.2515
       DOS:  cpu time    0.0001: real time    0.0001
    --------------------------------------------
      LOOP:  cpu time   24.1459: real time   24.2351

 eigenvalue-minimisations  :   616
 total energy-change (2. order) :-0.6931633E+02  (-0.5765741E+02)
 number of electron     473.0000000 magnetization      43.0000000
 augmentation part      473.0000000 magnetization      43.0000000

 Free energy of the ion-electron system (eV)
  ---------------------------------------------------
  alpha Z        PSCENC =        62.11298607
  Ewald energy   TEWEN  =    200000.73703781
  -Hartree energ DENC   =   -254428.70631852
  -exchange      EXHF   =         0.00000000
  -V(xc)+E(xc)   XCENC  =      1947.54388470
  PAW double counting   =     52808.19233011   -57358.60005557
  entropy T*S    EENTRO =         0.00000000
  eigenvalues    EBANDS =     -2887.83312404
  atomic energy  EATOM  =     59810.23014029
  Solvation  Ediel_sol  =         0.00000000
  ---------------------------------------------------
  free energy    TOTEN  =       -46.32311916 eV

  energy without entropy =      -46.32311916  energy(sigma->0) =      -46.32311916


--------------------------------------------------------------------------------------------------------




----------------------------------------- Iteration    1(   9)  ---------------------------------------


    EDDIAG:  cpu time    3.0586: real time    3.0630
  RMM-DIIS:  cpu time   53.3945: real time   53.5104
    ORTHCH:  cpu time    0.3115: real time    0.3116
       DOS:  cpu time    0.0001: real time    0.0001
    --------------------------------------------
      LOOP:  cpu time   56.7677: real time   56.8908

 eigenvalue-minimisations  :  1604
 total energy-change (2. order) :-0.7151706E+02  (-0.6730453E+02)
 number of electron     473.0000000 magnetization      43.0000000
 augmentation part      473.0000000 magnetization      43.0000000

 Free energy of the ion-electron system (eV)
  ---------------------------------------------------
  alpha Z        PSCENC =        62.11298607
  Ewald energy   TEWEN  =    200000.73703781
  -Hartree energ DENC   =   -254428.70631852
  -exchange      EXHF   =         0.00000000
  -V(xc)+E(xc)   XCENC  =      1947.54388470
  PAW double counting   =     52808.19233011   -57358.60005557
  entropy T*S    EENTRO =         0.00000000
  eigenvalues    EBANDS =     -2959.35018117
  atomic energy  EATOM  =     59810.23014029
  Solvation  Ediel_sol  =         0.00000000
  ---------------------------------------------------
  free energy    TOTEN  =      -117.84017628 eV

  energy without entropy =     -117.84017628  energy(sigma->0) =     -117.84017628


--------------------------------------------------------------------------------------------------------




----------------------------------------- Iteration    1(  10)  ---------------------------------------


    EDDIAG:  cpu time    3.0829: real time    3.0944
  RMM-DIIS:  cpu time   44.5713: real time   44.6586
    ORTHCH:  cpu time    0.2794: real time    0.2797
       DOS:  cpu time    0.0001: real time    0.0001
    --------------------------------------------
      LOOP:  cpu time   47.9368: real time   48.0388

 eigenvalue-minimisations  :  1267
 total energy-change (2. order) :-0.1762121E+02  (-0.1460762E+02)
 number of electron     473.0000000 magnetization      43.0000000
 augmentation part      473.0000000 magnetization      43.0000000

 Free energy of the ion-electron system (eV)
  ---------------------------------------------------
  alpha Z        PSCENC =        62.11298607
  Ewald energy   TEWEN  =    200000.73703781
  -Hartree energ DENC   =   -254428.70631852
  -exchange      EXHF   =         0.00000000
  -V(xc)+E(xc)   XCENC  =      1947.54388470
  PAW double counting   =     52808.19233011   -57358.60005557
  entropy T*S    EENTRO =        -0.00000000
  eigenvalues    EBANDS =     -2976.97139015
  atomic energy  EATOM  =     59810.23014029
  Solvation  Ediel_sol  =         0.00000000
  ---------------------------------------------------
  free energy    TOTEN  =      -135.46138527 eV

  energy without entropy =     -135.46138527  energy(sigma->0) =     -135.46138527


--------------------------------------------------------------------------------------------------------




----------------------------------------- Iteration    1(  11)  ---------------------------------------


    EDDIAG:  cpu time    3.0889: real time    3.0925
  RMM-DIIS:  cpu time   51.4777: real time   51.9272
    ORTHCH:  cpu time    0.2789: real time    0.2793
       DOS:  cpu time    0.0002: real time    0.0002
    --------------------------------------------
      LOOP:  cpu time   54.8485: real time   55.3048

 eigenvalue-minimisations  :  1518
 total energy-change (2. order) :-0.7550392E+01  (-0.4233129E+01)
 number of electron     473.0000000 magnetization      43.0000000
 augmentation part      473.0000000 magnetization      43.0000000

 Free energy of the ion-electron system (eV)
  ---------------------------------------------------
  alpha Z        PSCENC =        62.11298607
  Ewald energy   TEWEN  =    200000.73703781
  -Hartree energ DENC   =   -254428.70631852
  -exchange      EXHF   =         0.00000000
  -V(xc)+E(xc)   XCENC  =      1947.54388470
  PAW double counting   =     52808.19233011   -57358.60005557
  entropy T*S    EENTRO =        -0.00000000
  eigenvalues    EBANDS =     -2984.52178200
  atomic energy  EATOM  =     59810.23014029
  Solvation  Ediel_sol  =         0.00000000
  ---------------------------------------------------
  free energy    TOTEN  =      -143.01177712 eV

  energy without entropy =     -143.01177712  energy(sigma->0) =     -143.01177712


--------------------------------------------------------------------------------------------------------




----------------------------------------- Iteration    1(  12)  ---------------------------------------


    EDDIAG:  cpu time    3.0711: real time    3.1083
  RMM-DIIS:  cpu time   49.0449: real time   49.1402
    ORTHCH:  cpu time    0.2796: real time    0.2797
       DOS:  cpu time    0.0001: real time    0.0001
    CHARGE:  cpu time    1.3349: real time    1.3357
    MIXING:  cpu time    0.0238: real time    0.0239
    --------------------------------------------
      LOOP:  cpu time   53.7575: real time   53.8937

 eigenvalue-minimisations  :  1453
 total energy-change (2. order) :-0.2237670E+01  (-0.1386690E+01)
 number of electron     473.0000327 magnetization      39.9155566
 augmentation part      287.1741317 magnetization      41.2593277

 Broyden mixing:
  rms(total) = 0.54940E+01    rms(broyden)= 0.54935E+01
  rms(prec ) = 0.56047E+01
  weight for this iteration     100.00

 Free energy of the ion-electron system (eV)
  ---------------------------------------------------
  alpha Z        PSCENC =        62.11298607
  Ewald energy   TEWEN  =    200000.73703781
  -Hartree energ DENC   =   -254428.70631852
  -exchange      EXHF   =         0.00000000
  -V(xc)+E(xc)   XCENC  =      1947.54388470
  PAW double counting   =     52808.19233011   -57358.60005557
  entropy T*S    EENTRO =         0.00000000
  eigenvalues    EBANDS =     -2986.75945159
  atomic energy  EATOM  =     59810.23014029
  Solvation  Ediel_sol  =         0.00000000
  ---------------------------------------------------
  free energy    TOTEN  =      -145.24944671 eV

  energy without entropy =     -145.24944671  energy(sigma->0) =     -145.24944671


--------------------------------------------------------------------------------------------------------




----------------------------------------- Iteration    1(  13)  ---------------------------------------


    POTLOK:  cpu time    1.1076: real time    1.1094
    SETDIJ:  cpu time    0.0206: real time    0.0212
    EDDIAG:  cpu time    3.0808: real time    3.0896
  RMM-DIIS:  cpu time   41.5504: real time   41.6320
    ORTHCH:  cpu time    0.2809: real time    0.2811
       DOS:  cpu time    0.0002: real time    0.0002
    CHARGE:  cpu time    1.3428: real time    1.3437
    MIXING:  cpu time    0.0256: real time    0.0257
    --------------------------------------------
      LOOP:  cpu time   47.4122: real time   47.5091

 eigenvalue-minimisations  :  1234
 total energy-change (2. order) : 0.6014854E+02  (-0.4108117E+02)
 number of electron     473.0000343 magnetization      38.0225942
 augmentation part      313.8571051 magnetization      27.2596034

 Broyden mixing:
  rms(total) = 0.24160E+01    rms(broyden)= 0.24151E+01
  rms(prec ) = 0.25306E+01
  weight for this iteration     100.00

 eigenvalues of (default mixing * dielectric matrix)
  average eigenvalue GAMMA=   0.8160
  0.8160

 Free energy of the ion-electron system (eV)
  ---------------------------------------------------
  alpha Z        PSCENC =        62.11298607
  Ewald energy   TEWEN  =    200000.73703781
  -Hartree energ DENC   =   -253683.79611032
  -exchange      EXHF   =         0.00000000
  -V(xc)+E(xc)   XCENC  =      1937.40384304
  PAW double counting   =     53510.04181733   -57890.88166523
  entropy T*S    EENTRO =         0.00000000
  eigenvalues    EBANDS =     -3830.94895990
  atomic energy  EATOM  =     59810.23014029
  Solvation  Ediel_sol  =         0.00000000
  ---------------------------------------------------
  free energy    TOTEN  =       -85.10091091 eV

  energy without entropy =      -85.10091091  energy(sigma->0) =      -85.10091091


--------------------------------------------------------------------------------------------------------




----------------------------------------- Iteration    1(  14)  ---------------------------------------


    POTLOK:  cpu time    1.1038: real time    1.1102
    SETDIJ:  cpu time    0.0208: real time    0.0215
    EDDIAG:  cpu time    3.0922: real time    3.0946
  RMM-DIIS:  cpu time   42.5011: real time   42.6121
    ORTHCH:  cpu time    0.2748: real time    0.2751
       DOS:  cpu time    0.0002: real time    0.0002
    CHARGE:  cpu time    1.3198: real time    1.3205
    MIXING:  cpu time    0.0270: real time    0.0271
    --------------------------------------------
      LOOP:  cpu time   48.3430: real time   48.4676

 eigenvalue-minimisations  :  1233
 total energy-change (2. order) : 0.2278954E+02  (-0.7345161E+01)
 number of electron     473.0000354 magnetization      35.2506286
 augmentation part      302.3298863 magnetization      22.3015139

 Broyden mixing:
  rms(total) = 0.11193E+01    rms(broyden)= 0.11189E+01
  rms(prec ) = 0.11447E+01
  weight for this iteration     100.00

 eigenvalues of (default mixing * dielectric matrix)
  average eigenvalue GAMMA=   0.8770
  1.0981  0.6559

 Free energy of the ion-electron system (eV)
  ---------------------------------------------------
  alpha Z        PSCENC =        62.11298607
  Ewald energy   TEWEN  =    200000.73703781
  -Hartree energ DENC   =   -254297.15569709
  -exchange      EXHF   =         0.00000000
  -V(xc)+E(xc)   XCENC  =      1963.85320820
  PAW double counting   =     54683.65268165   -59249.74203059
  entropy T*S    EENTRO =         0.00000000
  eigenvalues    EBANDS =     -3035.99969426
  atomic energy  EATOM  =     59810.23014029
  Solvation  Ediel_sol  =         0.00000000
  ---------------------------------------------------
  free energy    TOTEN  =       -62.31136792 eV

  energy without entropy =      -62.31136792  energy(sigma->0) =      -62.31136792


--------------------------------------------------------------------------------------------------------




----------------------------------------- Iteration    1(  15)  ---------------------------------------


    POTLOK:  cpu time    1.1047: real time    1.1055
    SETDIJ:  cpu time    0.0205: real time    0.0204
    EDDIAG:  cpu time    3.0648: real time    3.0743
  RMM-DIIS:  cpu time   41.6499: real time   41.7674
    ORTHCH:  cpu time    0.2664: real time    0.2666
       DOS:  cpu time    0.0002: real time    0.0002
    CHARGE:  cpu time    1.3418: real time    1.3428
    MIXING:  cpu time    0.0294: real time    0.0294
    --------------------------------------------
      LOOP:  cpu time   47.4813: real time   47.6131

 eigenvalue-minimisations  :  1238
 total energy-change (2. order) : 0.1402326E+02  (-0.1670750E+01)
 number of electron     473.0000327 magnetization      33.2620162
 augmentation part      303.4956540 magnetization      19.6999993

 Broyden mixing:
  rms(total) = 0.85692E+00    rms(broyden)= 0.85679E+00
  rms(prec ) = 0.88012E+00
  weight for this iteration     100.00

 eigenvalues of (default mixing * dielectric matrix)
  average eigenvalue GAMMA=   0.9160
  1.3877  0.7261  0.6341

 Free energy of the ion-electron system (eV)
  ---------------------------------------------------
  alpha Z        PSCENC =        62.11298607
  Ewald energy   TEWEN  =    200000.73703781
  -Hartree energ DENC   =   -254378.66657461
  -exchange      EXHF   =         0.00000000
  -V(xc)+E(xc)   XCENC  =      1971.24548708
  PAW double counting   =     55450.03098894   -60049.60824121
  entropy T*S    EENTRO =         0.00000000
  eigenvalues    EBANDS =     -2914.36993722
  atomic energy  EATOM  =     59810.23014029
  Solvation  Ediel_sol  =         0.00000000
  ---------------------------------------------------
  free energy    TOTEN  =       -48.28811284 eV

  energy without entropy =      -48.28811284  energy(sigma->0) =      -48.28811284


--------------------------------------------------------------------------------------------------------




----------------------------------------- Iteration    1(  16)  ---------------------------------------


    POTLOK:  cpu time    1.1081: real time    1.1096
    SETDIJ:  cpu time    0.0204: real time    0.0211
    EDDIAG:  cpu time    3.0698: real time    3.0799
  RMM-DIIS:  cpu time   44.1798: real time   44.2722
    ORTHCH:  cpu time    0.2651: real time    0.2653
       DOS:  cpu time    0.0002: real time    0.0002
    CHARGE:  cpu time    1.3468: real time    1.3484
    MIXING:  cpu time    0.0314: real time    0.0318
    --------------------------------------------
      LOOP:  cpu time   50.0254: real time   50.1350

 eigenvalue-minimisations  :  1237
 total energy-change (2. order) : 0.2523709E+01  (-0.4011618E+00)
 number of electron     473.0000344 magnetization      28.8943192
 augmentation part      303.2877961 magnetization      15.2196883

 Broyden mixing:
  rms(total) = 0.63518E+00    rms(broyden)= 0.63512E+00
  rms(prec ) = 0.64221E+00
  weight for this iteration     100.00

 eigenvalues of (default mixing * dielectric matrix)
  average eigenvalue GAMMA=   1.1484
  2.4272  1.0065  0.6805  0.4794

 Free energy of the ion-electron system (eV)
  ---------------------------------------------------
  alpha Z        PSCENC =        62.11298607
  Ewald energy   TEWEN  =    200000.73703781
  -Hartree energ DENC   =   -254466.38552736
  -exchange      EXHF   =         0.00000000
  -V(xc)+E(xc)   XCENC  =      1972.13959475
  PAW double counting   =     55795.28814946   -60411.37277472
  entropy T*S    EENTRO =         0.00000000
  eigenvalues    EBANDS =     -2808.51401050
  atomic energy  EATOM  =     59810.23014029
  Solvation  Ediel_sol  =         0.00000000
  ---------------------------------------------------
  free energy    TOTEN  =       -45.76440419 eV

  energy without entropy =      -45.76440419  energy(sigma->0) =      -45.76440419


--------------------------------------------------------------------------------------------------------




----------------------------------------- Iteration    1(  17)  ---------------------------------------


    POTLOK:  cpu time    1.1022: real time    1.1073
    SETDIJ:  cpu time    0.0207: real time    0.0207
    EDDIAG:  cpu time    3.0818: real time    3.0899
  RMM-DIIS:  cpu time   41.7499: real time   42.3573
    ORTHCH:  cpu time    0.2612: real time    0.2615
       DOS:  cpu time    0.0002: real time    0.0002
    CHARGE:  cpu time    1.3438: real time    1.3445
    MIXING:  cpu time    0.0331: real time    0.0331
    --------------------------------------------
      LOOP:  cpu time   47.5966: real time   48.2211

 eigenvalue-minimisations  :  1249
 total energy-change (2. order) :-0.3237768E+01  (-0.2378165E+00)
 number of electron     473.0000323 magnetization      26.2418367
 augmentation part      303.5212556 magnetization      14.4250544

 Broyden mixing:
  rms(total) = 0.49049E+00    rms(broyden)= 0.49008E+00
  rms(prec ) = 0.49682E+00
  weight for this iteration     100.00

 eigenvalues of (default mixing * dielectric matrix)
  average eigenvalue GAMMA=   1.0873
  2.5593  1.0612  0.6893  0.6893  0.4376

 Free energy of the ion-electron system (eV)
  ---------------------------------------------------
  alpha Z        PSCENC =        62.11298607
  Ewald energy   TEWEN  =    200000.73703781
  -Hartree energ DENC   =   -254548.77230713
  -exchange      EXHF   =         0.00000000
  -V(xc)+E(xc)   XCENC  =      1968.88295104
  PAW double counting   =     56245.62489653   -60881.51498495
  entropy T*S    EENTRO =        -0.00000000
  eigenvalues    EBANDS =     -2706.30289173
  atomic energy  EATOM  =     59810.23014029
  Solvation  Ediel_sol  =         0.00000000
  ---------------------------------------------------
  free energy    TOTEN  =       -49.00217206 eV

  energy without entropy =      -49.00217206  energy(sigma->0) =      -49.00217206


--------------------------------------------------------------------------------------------------------




----------------------------------------- Iteration    1(  18)  ---------------------------------------


    POTLOK:  cpu time    1.1038: real time    1.1094
    SETDIJ:  cpu time    0.0208: real time    0.0208
    EDDIAG:  cpu time    3.0345: real time    3.0714
  RMM-DIIS:  cpu time   43.6947: real time   43.7783
    ORTHCH:  cpu time    0.2646: real time    0.2653
       DOS:  cpu time    0.0002: real time    0.0002
    CHARGE:  cpu time    1.3438: real time    1.3448
    MIXING:  cpu time    0.0374: real time    0.0375
    --------------------------------------------
      LOOP:  cpu time   49.5036: real time   49.6341

 eigenvalue-minimisations  :  1233
 total energy-change (2. order) :-0.8593923E+01  (-0.2943742E+00)
 number of electron     473.0000323 magnetization      22.1124128
 augmentation part      303.3326390 magnetization      11.0538535

 Broyden mixing:
  rms(total) = 0.39209E+00    rms(broyden)= 0.39203E+00
  rms(prec ) = 0.39636E+00
  weight for this iteration     100.00

 eigenvalues of (default mixing * dielectric matrix)
  average eigenvalue GAMMA=   1.2877
  3.2474  1.9219  0.7574  0.7574  0.6136  0.4285

 Free energy of the ion-electron system (eV)
  ---------------------------------------------------
  alpha Z        PSCENC =        62.11298607
  Ewald energy   TEWEN  =    200000.73703781
  -Hartree energ DENC   =   -254590.04859948
  -exchange      EXHF   =         0.00000000
  -V(xc)+E(xc)   XCENC  =      1963.00094152
  PAW double counting   =     56276.44472336   -60912.52677841
  entropy T*S    EENTRO =        -0.00000000
  eigenvalues    EBANDS =     -2667.54654587
  atomic energy  EATOM  =     59810.23014029
  Solvation  Ediel_sol  =         0.00000000
  ---------------------------------------------------
  free energy    TOTEN  =       -57.59609471 eV

  energy without entropy =      -57.59609471  energy(sigma->0) =      -57.59609471


--------------------------------------------------------------------------------------------------------




----------------------------------------- Iteration    1(  19)  ---------------------------------------


    POTLOK:  cpu time    1.1089: real time    1.1103
    SETDIJ:  cpu time    0.0205: real time    0.0210
    EDDIAG:  cpu time    3.0595: real time    3.0704
  RMM-DIIS:  cpu time   42.7305: real time   42.8346
    ORTHCH:  cpu time    0.2666: real time    0.2672
       DOS:  cpu time    0.0002: real time    0.0002
    CHARGE:  cpu time    1.3198: real time    1.3284
    MIXING:  cpu time    0.0396: real time    0.0396
    --------------------------------------------
      LOOP:  cpu time   48.5493: real time   48.6781

 eigenvalue-minimisations  :  1232
 total energy-change (2. order) :-0.2043428E+02  (-0.1145686E+01)
 number of electron     473.0000327 magnetization      19.8224657
 augmentation part      303.4445232 magnetization      11.8066983

 Broyden mixing:
  rms(total) = 0.32252E+00    rms(broyden)= 0.32187E+00
  rms(prec ) = 0.32632E+00
  weight for this iteration     100.00

 eigenvalues of (default mixing * dielectric matrix)
  average eigenvalue GAMMA=   1.2331
  3.4956  2.0722  0.7796  0.7796  0.6101  0.4472  0.4472

 Free energy of the ion-electron system (eV)
  ---------------------------------------------------
  alpha Z        PSCENC =        62.11298607
  Ewald energy   TEWEN  =    200000.73703781
  -Hartree energ DENC   =   -254599.59381589
  -exchange      EXHF   =         0.00000000
  -V(xc)+E(xc)   XCENC  =      1947.81681738
  PAW double counting   =     56112.22939440   -60736.45083592
  entropy T*S    EENTRO =         0.00000000
  eigenvalues    EBANDS =     -2675.11209443
  atomic energy  EATOM  =     59810.23014029
  Solvation  Ediel_sol  =         0.00000000
  ---------------------------------------------------
  free energy    TOTEN  =       -78.03037030 eV

  energy without entropy =      -78.03037030  energy(sigma->0) =      -78.03037030


--------------------------------------------------------------------------------------------------------




----------------------------------------- Iteration    1(  20)  ---------------------------------------


    POTLOK:  cpu time    1.1059: real time    1.1064
    SETDIJ:  cpu time    0.0204: real time    0.0204
    EDDIAG:  cpu time    3.0662: real time    3.0691
  RMM-DIIS:  cpu time   41.7843: real time   41.8971
    ORTHCH:  cpu time    0.2635: real time    0.2639
       DOS:  cpu time    0.0002: real time    0.0002
    CHARGE:  cpu time    1.3396: real time    1.3410
    MIXING:  cpu time    0.0455: real time    0.0455
    --------------------------------------------
      LOOP:  cpu time   47.6293: real time   47.7501

 eigenvalue-minimisations  :  1240
 total energy-change (2. order) :-0.1056599E+02  (-0.5681075E+00)
 number of electron     473.0000326 magnetization      17.2834022
 augmentation part      303.3011669 magnetization      11.6918442

 Broyden mixing:
  rms(total) = 0.29398E+00    rms(broyden)= 0.29336E+00
  rms(prec ) = 0.29777E+00
  weight for this iteration     100.00

 eigenvalues of (default mixing * dielectric matrix)
  average eigenvalue GAMMA=   1.2411
  3.7935  2.3741  0.8403  0.7246  0.6201  0.6201  0.4171  0.5388

 Free energy of the ion-electron system (eV)
  ---------------------------------------------------
  alpha Z        PSCENC =        62.11298607
  Ewald energy   TEWEN  =    200000.73703781
  -Hartree energ DENC   =   -254600.85065825
  -exchange      EXHF   =         0.00000000
  -V(xc)+E(xc)   XCENC  =      1940.57850189
  PAW double counting   =     56019.18905506   -60639.68481193
  entropy T*S    EENTRO =         0.00000000
  eigenvalues    EBANDS =     -2680.90860628
  atomic energy  EATOM  =     59810.23014029
  Solvation  Ediel_sol  =         0.00000000
  ---------------------------------------------------
  free energy    TOTEN  =       -88.59635534 eV

  energy without entropy =      -88.59635534  energy(sigma->0) =      -88.59635534


--------------------------------------------------------------------------------------------------------




----------------------------------------- Iteration    1(  21)  ---------------------------------------


    POTLOK:  cpu time    1.1084: real time    1.1105
    SETDIJ:  cpu time    0.0204: real time    0.0212
    EDDIAG:  cpu time    3.0627: real time    3.0658
  RMM-DIIS:  cpu time   43.8070: real time   43.8768
    ORTHCH:  cpu time    0.2813: real time    0.2814
       DOS:  cpu time    0.0001: real time    0.0001
    CHARGE:  cpu time    1.3359: real time    1.3371
    MIXING:  cpu time    0.0518: real time    0.0518
    --------------------------------------------
      LOOP:  cpu time   49.6713: real time   49.7511

 eigenvalue-minimisations  :  1233
 total energy-change (2. order) :-0.7502185E+01  (-0.4113739E+00)
 number of electron     473.0000327 magnetization      14.2840459
 augmentation part      303.0991236 magnetization       9.4938292

 Broyden mixing:
  rms(total) = 0.23468E+00    rms(broyden)= 0.23461E+00
  rms(prec ) = 0.24040E+00
  weight for this iteration     100.00

 eigenvalues of (default mixing * dielectric matrix)
  average eigenvalue GAMMA=   1.4303
  4.9564  2.9869  1.0561  1.0561  0.6607  0.6090  0.6090  0.4394  0.4991

 Free energy of the ion-electron system (eV)
  ---------------------------------------------------
  alpha Z        PSCENC =        62.11298607
  Ewald energy   TEWEN  =    200000.73703781
  -Hartree energ DENC   =   -254604.40325910
  -exchange      EXHF   =         0.00000000
  -V(xc)+E(xc)   XCENC  =      1935.46627186
  PAW double counting   =     55957.52565825   -60575.55573064
  entropy T*S    EENTRO =         0.00000000
  eigenvalues    EBANDS =     -2682.21164488
  atomic energy  EATOM  =     59810.23014029
  Solvation  Ediel_sol  =         0.00000000
  ---------------------------------------------------
  free energy    TOTEN  =       -96.09854034 eV

  energy without entropy =      -96.09854034  energy(sigma->0) =      -96.09854034


--------------------------------------------------------------------------------------------------------




----------------------------------------- Iteration    1(  22)  ---------------------------------------


    POTLOK:  cpu time    1.1035: real time    1.1112
    SETDIJ:  cpu time    0.0209: real time    0.0215
    EDDIAG:  cpu time    3.0695: real time    3.0725
  RMM-DIIS:  cpu time   42.0532: real time   42.1237
    ORTHCH:  cpu time    0.2609: real time    0.2612
       DOS:  cpu time    0.0002: real time    0.0002
    CHARGE:  cpu time    1.3172: real time    1.3179
    MIXING:  cpu time    0.0550: real time    0.0552
    --------------------------------------------
      LOOP:  cpu time   47.8839: real time   47.9694

 eigenvalue-minimisations  :  1233
 total energy-change (2. order) :-0.1154271E+02  (-0.7565923E+00)
 number of electron     473.0000326 magnetization      12.7210863
 augmentation part      303.2295079 magnetization       9.0161112

 Broyden mixing:
  rms(total) = 0.17204E+00    rms(broyden)= 0.17197E+00
  rms(prec ) = 0.17658E+00
  weight for this iteration     100.00

 eigenvalues of (default mixing * dielectric matrix)
  average eigenvalue GAMMA=   1.4634
  5.1783  3.5447  1.1617  1.1617  0.6811  0.6811  0.6633  0.6633  0.4371  0.4612

 Free energy of the ion-electron system (eV)
  ---------------------------------------------------
  alpha Z        PSCENC =        62.11298607
  Ewald energy   TEWEN  =    200000.73703781
  -Hartree energ DENC   =   -254549.81944829
  -exchange      EXHF   =         0.00000000
  -V(xc)+E(xc)   XCENC  =      1926.41257023
  PAW double counting   =     55787.74881531   -60397.32098193
  entropy T*S    EENTRO =         0.00000000
  eigenvalues    EBANDS =     -2747.74236527
  atomic energy  EATOM  =     59810.23014029
  Solvation  Ediel_sol  =         0.00000000
  ---------------------------------------------------
  free energy    TOTEN  =      -107.64124578 eV

  energy without entropy =     -107.64124578  energy(sigma->0) =     -107.64124578


--------------------------------------------------------------------------------------------------------




----------------------------------------- Iteration    1(  23)  ---------------------------------------


    POTLOK:  cpu time    1.0876: real time    1.1138
    SETDIJ:  cpu time    0.0204: real time    0.0204
    EDDIAG:  cpu time    3.0631: real time    3.0735
  RMM-DIIS:  cpu time   41.9274: real time   42.3514
    ORTHCH:  cpu time    0.2655: real time    0.2656
       DOS:  cpu time    0.0002: real time    0.0002
    CHARGE:  cpu time    1.3379: real time    1.3402
    MIXING:  cpu time    0.0604: real time    0.0604
    --------------------------------------------
      LOOP:  cpu time   47.7662: real time   48.2320

 eigenvalue-minimisations  :  1241
 total energy-change (2. order) :-0.6285248E+01  (-0.2713256E+00)
 number of electron     473.0000326 magnetization      10.5583928
 augmentation part      303.1797802 magnetization       7.4015026

 Broyden mixing:
  rms(total) = 0.12928E+00    rms(broyden)= 0.12924E+00
  rms(prec ) = 0.13458E+00
  weight for this iteration     100.00

 eigenvalues of (default mixing * dielectric matrix)
  average eigenvalue GAMMA=   1.5818
  5.9776  4.5340  1.4338  0.9459  0.9459  0.7166  0.7166  0.6123  0.6123  0.4337
  0.4710

 Free energy of the ion-electron system (eV)
  ---------------------------------------------------
  alpha Z        PSCENC =        62.11298607
  Ewald energy   TEWEN  =    200000.73703781
  -Hartree energ DENC   =   -254501.57481025
  -exchange      EXHF   =         0.00000000
  -V(xc)+E(xc)   XCENC  =      1921.06405216
  PAW double counting   =     55717.52175655   -60326.17540817
  entropy T*S    EENTRO =         0.00000000
  eigenvalues    EBANDS =     -2797.84224784
  atomic energy  EATOM  =     59810.23014029
  Solvation  Ediel_sol  =         0.00000000
  ---------------------------------------------------
  free energy    TOTEN  =      -113.92649338 eV

  energy without entropy =     -113.92649338  energy(sigma->0) =     -113.92649338


--------------------------------------------------------------------------------------------------------




----------------------------------------- Iteration    1(  24)  ---------------------------------------


    POTLOK:  cpu time    1.1115: real time    1.1142
    SETDIJ:  cpu time    0.0208: real time    0.0215
    EDDIAG:  cpu time    3.0675: real time    3.0707
  RMM-DIIS:  cpu time   41.8623: real time   41.9674
    ORTHCH:  cpu time    0.2649: real time    0.2653
       DOS:  cpu time    0.0002: real time    0.0002
    CHARGE:  cpu time    1.3176: real time    1.3184
    MIXING:  cpu time    0.0661: real time    0.0661
    --------------------------------------------
      LOOP:  cpu time   47.7144: real time   47.8300

 eigenvalue-minimisations  :  1233
 total energy-change (2. order) :-0.4613521E+01  (-0.1727062E+00)
 number of electron     473.0000325 magnetization       9.0861420
 augmentation part      303.2335334 magnetization       6.3492932

 Broyden mixing:
  rms(total) = 0.95762E-01    rms(broyden)= 0.95725E-01
  rms(prec ) = 0.99644E-01
  weight for this iteration     100.00

 eigenvalues of (default mixing * dielectric matrix)
  average eigenvalue GAMMA=   1.6161
  6.7250  4.3486  1.8991  1.1457  1.1457  0.6475  0.6475  0.7116  0.6888  0.5395
  0.4426  0.4521

 Free energy of the ion-electron system (eV)
  ---------------------------------------------------
  alpha Z        PSCENC =        62.11298607
  Ewald energy   TEWEN  =    200000.73703781
  -Hartree energ DENC   =   -254442.17507342
  -exchange      EXHF   =         0.00000000
  -V(xc)+E(xc)   XCENC  =      1916.66775018
  PAW double counting   =     55672.62370772   -60282.41312853
  entropy T*S    EENTRO =         0.00000000
  eigenvalues    EBANDS =     -2856.32343435
  atomic energy  EATOM  =     59810.23014029
  Solvation  Ediel_sol  =         0.00000000
  ---------------------------------------------------
  free energy    TOTEN  =      -118.54001423 eV

  energy without entropy =     -118.54001423  energy(sigma->0) =     -118.54001423


--------------------------------------------------------------------------------------------------------




----------------------------------------- Iteration    1(  25)  ---------------------------------------


    POTLOK:  cpu time    1.1075: real time    1.1099
    SETDIJ:  cpu time    0.0206: real time    0.0214
    EDDIAG:  cpu time    3.0769: real time    3.0795
  RMM-DIIS:  cpu time   41.8431: real time   41.9679
    ORTHCH:  cpu time    0.2623: real time    0.2630
       DOS:  cpu time    0.0001: real time    0.0001
    CHARGE:  cpu time    1.3478: real time    1.3490
    MIXING:  cpu time    0.0722: real time    0.0722
    --------------------------------------------
      LOOP:  cpu time   47.7338: real time   47.8680

 eigenvalue-minimisations  :  1233
 total energy-change (2. order) :-0.1933271E+01  (-0.3816097E-01)
 number of electron     473.0000324 magnetization       7.3710909
 augmentation part      303.1661441 magnetization       4.7352472

 Broyden mixing:
  rms(total) = 0.68910E-01    rms(broyden)= 0.68896E-01
  rms(prec ) = 0.73044E-01
  weight for this iteration     100.00

 eigenvalues of (default mixing * dielectric matrix)
  average eigenvalue GAMMA=   1.7080
  7.8868  4.4800  2.3288  1.1845  1.1845  1.1469  0.6618  0.6618  0.6716  0.5901
  0.5199  0.4435  0.4435

 Free energy of the ion-electron system (eV)
  ---------------------------------------------------
  alpha Z        PSCENC =        62.11298607
  Ewald energy   TEWEN  =    200000.73703781
  -Hartree energ DENC   =   -254411.33719326
  -exchange      EXHF   =         0.00000000
  -V(xc)+E(xc)   XCENC  =      1914.53782954
  PAW double counting   =     55731.08831142   -60346.34448496
  entropy T*S    EENTRO =        -0.00000000
  eigenvalues    EBANDS =     -2881.49791220
  atomic energy  EATOM  =     59810.23014029
  Solvation  Ediel_sol  =         0.00000000
  ---------------------------------------------------
  free energy    TOTEN  =      -120.47328529 eV

  energy without entropy =     -120.47328529  energy(sigma->0) =     -120.47328529


--------------------------------------------------------------------------------------------------------




----------------------------------------- Iteration    1(  26)  ---------------------------------------


    POTLOK:  cpu time    1.1107: real time    1.1121
    SETDIJ:  cpu time    0.0207: real time    0.0213
    EDDIAG:  cpu time    3.0636: real time    3.0722
  RMM-DIIS:  cpu time   41.9435: real time   42.0520
    ORTHCH:  cpu time    0.2657: real time    0.2661
       DOS:  cpu time    0.0002: real time    0.0002
    CHARGE:  cpu time    1.3261: real time    1.3272
    MIXING:  cpu time    0.0797: real time    0.0797
    --------------------------------------------
      LOOP:  cpu time   47.8138: real time   47.9366

 eigenvalue-minimisations  :  1233
 total energy-change (2. order) :-0.1979741E+01  (-0.2269336E-01)
 number of electron     473.0000325 magnetization       6.4449385
 augmentation part      303.2839107 magnetization       3.9259822

 Broyden mixing:
  rms(total) = 0.46108E-01    rms(broyden)= 0.46095E-01
  rms(prec ) = 0.48462E-01
  weight for this iteration     100.00

 eigenvalues of (default mixing * dielectric matrix)
  average eigenvalue GAMMA=   1.7360
  8.2960  4.6837  2.8747  1.2269  1.2269  1.2498  0.6634  0.6634  0.7277  0.7277
  0.5368  0.5368  0.4452  0.4452

 Free energy of the ion-electron system (eV)
  ---------------------------------------------------
  alpha Z        PSCENC =        62.11298607
  Ewald energy   TEWEN  =    200000.73703781
  -Hartree energ DENC   =   -254360.59381466
  -exchange      EXHF   =         0.00000000
  -V(xc)+E(xc)   XCENC  =      1912.05833627
  PAW double counting   =     55748.87805712   -60365.79360810
  entropy T*S    EENTRO =         0.00000000
  eigenvalues    EBANDS =     -2930.08216104
  atomic energy  EATOM  =     59810.23014029
  Solvation  Ediel_sol  =         0.00000000
  ---------------------------------------------------
  free energy    TOTEN  =      -122.45302623 eV

  energy without entropy =     -122.45302623  energy(sigma->0) =     -122.45302623


--------------------------------------------------------------------------------------------------------




----------------------------------------- Iteration    1(  27)  ---------------------------------------


    POTLOK:  cpu time    1.1048: real time    1.1124
    SETDIJ:  cpu time    0.0208: real time    0.0214
    EDDIAG:  cpu time    3.0660: real time    3.0696
  RMM-DIIS:  cpu time   42.0543: real time   42.1407
    ORTHCH:  cpu time    0.2646: real time    0.2653
       DOS:  cpu time    0.0002: real time    0.0002
    CHARGE:  cpu time    1.3168: real time    1.3182
    MIXING:  cpu time    0.0840: real time    0.0841
    --------------------------------------------
      LOOP:  cpu time   47.9151: real time   48.0182

 eigenvalue-minimisations  :  1239
 total energy-change (2. order) :-0.1165695E+01  (-0.4432645E-02)
 number of electron     473.0000325 magnetization       5.3597437
 augmentation part      303.3023021 magnetization       2.8594658

 Broyden mixing:
  rms(total) = 0.35649E-01    rms(broyden)= 0.35642E-01
  rms(prec ) = 0.37283E-01
  weight for this iteration     100.00

 eigenvalues of (default mixing * dielectric matrix)
  average eigenvalue GAMMA=   1.7963
  9.0744  4.8930  2.9034  2.0103  1.2037  1.2037  0.9689  0.6608  0.6608  0.7536
  0.6589  0.5309  0.5309  0.4459  0.4459

 Free energy of the ion-electron system (eV)
  ---------------------------------------------------
  alpha Z        PSCENC =        62.11298607
  Ewald energy   TEWEN  =    200000.73703781
  -Hartree energ DENC   =   -254334.64209930
  -exchange      EXHF   =         0.00000000
  -V(xc)+E(xc)   XCENC  =      1910.77909724
  PAW double counting   =     55761.43722496   -60378.91381328
  entropy T*S    EENTRO =         0.00000000
  eigenvalues    EBANDS =     -2955.35929544
  atomic energy  EATOM  =     59810.23014029
  Solvation  Ediel_sol  =         0.00000000
  ---------------------------------------------------
  free energy    TOTEN  =      -123.61872165 eV

  energy without entropy =     -123.61872165  energy(sigma->0) =     -123.61872165


--------------------------------------------------------------------------------------------------------




----------------------------------------- Iteration    1(  28)  ---------------------------------------


    POTLOK:  cpu time    1.0924: real time    1.1268
    SETDIJ:  cpu time    0.0205: real time    0.0205
    EDDIAG:  cpu time    3.0667: real time    3.0701
  RMM-DIIS:  cpu time   42.5938: real time   42.6777
    ORTHCH:  cpu time    0.2723: real time    0.2725
       DOS:  cpu time    0.0002: real time    0.0002
    CHARGE:  cpu time    1.3399: real time    1.3418
    MIXING:  cpu time    0.0917: real time    0.0917
    --------------------------------------------
      LOOP:  cpu time   48.4813: real time   48.6079

 eigenvalue-minimisations  :  1232
 total energy-change (2. order) :-0.9351493E+00  (-0.2955357E-02)
 number of electron     473.0000325 magnetization       4.7741864
 augmentation part      303.2967774 magnetization       2.3269613

 Broyden mixing:
  rms(total) = 0.28103E-01    rms(broyden)= 0.28100E-01
  rms(prec ) = 0.29484E-01
  weight for this iteration     100.00

 eigenvalues of (default mixing * dielectric matrix)
  average eigenvalue GAMMA=   1.8222
  9.3415  4.9353  3.8650  2.0398  1.2936  1.1839  1.1839  0.6630  0.6630  0.7245
  0.7245  0.6127  0.4449  0.4449  0.5171  0.5171

 Free energy of the ion-electron system (eV)
  ---------------------------------------------------
  alpha Z        PSCENC =        62.11298607
  Ewald energy   TEWEN  =    200000.73703781
  -Hartree energ DENC   =   -254315.92497672
  -exchange      EXHF   =         0.00000000
  -V(xc)+E(xc)   XCENC  =      1909.86454043
  PAW double counting   =     55750.36095648   -60366.76379010
  entropy T*S    EENTRO =         0.00000000
  eigenvalues    EBANDS =     -2975.17076517
  atomic energy  EATOM  =     59810.23014029
  Solvation  Ediel_sol  =         0.00000000
  ---------------------------------------------------
  free energy    TOTEN  =      -124.55387090 eV

  energy without entropy =     -124.55387090  energy(sigma->0) =     -124.55387090


--------------------------------------------------------------------------------------------------------




----------------------------------------- Iteration    1(  29)  ---------------------------------------


    POTLOK:  cpu time    1.1016: real time    1.1113
    SETDIJ:  cpu time    0.0204: real time    0.0211
    EDDIAG:  cpu time    3.0597: real time    3.0639
  RMM-DIIS:  cpu time   41.3868: real time   42.0737
    ORTHCH:  cpu time    0.2573: real time    0.2575
       DOS:  cpu time    0.0001: real time    0.0001
    CHARGE:  cpu time    1.3475: real time    1.3486
    MIXING:  cpu time    0.0989: real time    0.0989
    --------------------------------------------
      LOOP:  cpu time   47.2760: real time   47.9815

 eigenvalue-minimisations  :  1234
 total energy-change (2. order) :-0.5405441E+00  (-0.8367291E-03)
 number of electron     473.0000325 magnetization       4.1711672
 augmentation part      303.2230346 magnetization       1.7049640

 Broyden mixing:
  rms(total) = 0.19035E-01    rms(broyden)= 0.19033E-01
  rms(prec ) = 0.19855E-01
  weight for this iteration     100.00

 eigenvalues of (default mixing * dielectric matrix)
  average eigenvalue GAMMA=   1.8689
 10.0565  5.1425  4.2851  2.2885  1.2251  1.2251  1.1623  1.1623  0.7821  0.6605
  0.6605  0.6007  0.6007  0.4445  0.4445  0.5151  0.5151

 Free energy of the ion-electron system (eV)
  ---------------------------------------------------
  alpha Z        PSCENC =        62.11298607
  Ewald energy   TEWEN  =    200000.73703781
  -Hartree energ DENC   =   -254311.78758023
  -exchange      EXHF   =         0.00000000
  -V(xc)+E(xc)   XCENC  =      1909.39013366
  PAW double counting   =     55766.19708679   -60383.15457370
  entropy T*S    EENTRO =         0.00000000
  eigenvalues    EBANDS =     -2978.81964568
  atomic energy  EATOM  =     59810.23014029
  Solvation  Ediel_sol  =         0.00000000
  ---------------------------------------------------
[...]
 15       -0.001   0.004   0.013   0.016
 16       -0.000   0.008   0.017   0.026
 17        0.052   0.007   0.012   0.070
 18       -0.001   0.010   0.017   0.027
 19        0.049   0.009   0.011   0.069
 20       -0.001   0.010   0.017   0.027
 21        0.049   0.009   0.011   0.069
 22       -0.001   0.009  -0.005   0.003
 23       -0.001   0.004   0.012   0.015
 24        0.005   0.008   0.024   0.037
 25        0.010   0.006   0.019   0.035
 26        0.015   0.008   0.019   0.043
 27        0.005   0.009   0.024   0.037
 28        0.010   0.006   0.019   0.035
 29        0.005   0.013   0.025   0.043
 30        0.006   0.009   0.024   0.038
 31        0.005   0.013   0.024   0.043
 32        0.008   0.006   0.034   0.047
 33        0.007   0.008   0.023   0.038
 34        0.005   0.013   0.025   0.043
 35        0.007   0.008   0.023   0.038
 36        0.006   0.009   0.024   0.038
 37        0.005   0.013   0.024   0.043
 38        0.015   0.008   0.021   0.044
 39        0.005   0.003   0.028   0.036
 40        0.007   0.008   0.023   0.039
 41        0.005   0.003   0.028   0.036
 42        0.007   0.008   0.023   0.039
 43        0.007   0.006   0.036   0.049
------------------------------------------------
tot        0.526   0.347   0.820   1.693
 
    CHARGE:  cpu time    1.3352: real time    1.3360
    FORLOC:  cpu time    0.1323: real time    0.1323
    FORNL :  cpu time   24.3760: real time   24.4040
    STRESS:  cpu time   74.1544: real time   74.3368
    FORCOR:  cpu time    1.1906: real time    1.2033
    FORHAR:  cpu time    0.2475: real time    0.2479
    MIXING:  cpu time    0.0375: real time    0.0375
    OFIELD:  cpu time    0.0001: real time    0.0001

  FORCE on cell =-STRESS in cart. coord.  units (eV):
  Direction    XX          YY          ZZ          XY          YZ          ZX
  --------------------------------------------------------------------------------------
  Alpha Z    62.11299    62.11299    62.11299
  Ewald   65192.90953 73757.05630 61057.05665    -5.96704     5.35941 -3384.01648
  Hartree 83326.32728 91581.75847 79390.51355    -5.87248     5.50509 -3196.49004
  E(xc)   -2762.12683 -2762.02116 -2762.25727     0.00025    -0.00117    -0.15297
  Local  ************************************    11.84267   -10.87864  6578.93323
  n-local -1011.32397 -1011.67337 -1011.43273     0.00666    -0.00414    -0.16857
  augment  4045.26666  4043.71332  4046.13671    -0.00266     0.00810     0.95057
  Kinetic  3877.18025  3876.40663  3878.06450     0.00185     0.01050     0.91311
  Fock        0.00000     0.00000     0.00000     0.00000     0.00000     0.00000
  -------------------------------------------------------------------------------------
  Total     -11.88673   -12.23806   -12.13016     0.00925    -0.00085    -0.03116
  in kB      -0.87479    -0.90065    -0.89271     0.00068    -0.00006    -0.00229
  external pressure =       -0.89 kB  Pullay stress =        0.00 kB


 VOLUME and BASIS-vectors are now :
 -----------------------------------------------------------------------------
  energy-cutoff  :      295.45
  volume of cell :    21770.42
      direct lattice vectors                 reciprocal lattice vectors
    27.922582024  0.000000000  0.000000000     0.035813307  0.000000000  0.000000000
     0.000000000 27.922582024  0.000000000     0.000000000  0.035813307  0.000000000
     0.000000000  0.000000000 27.922582024     0.000000000  0.000000000  0.035813307

  length of vectors
    27.922582024 27.922582024 27.922582024     0.035813307  0.035813307  0.035813307


 FORCES acting on ions
    electron-ion (+dipol)            ewald-force                    non-local-force                 convergence-correction
 -----------------------------------------------------------------------------------------------
   -.174E+03 -.136E+00 -.288E+03   0.175E+03 0.135E+00 0.288E+03   -.186E+00 -.261E-02 -.367E+00   0.346E-02 0.342E-03 -.475E-03
   -.168E+03 0.711E-01 -.218E+04   0.168E+03 -.702E-01 0.218E+04   -.267E+00 -.132E-02 0.251E+01   -.371E-02 0.377E-04 -.312E-02
   -.532E+03 0.116E+04 -.870E+03   0.531E+03 -.116E+04 0.869E+03   0.873E+00 -.126E+01 0.133E+01   -.476E-03 0.805E-02 -.719E-02
   -.650E+03 0.208E+04 -.106E+04   0.648E+03 -.208E+04 0.105E+04   0.190E+01 -.709E+01 0.314E+01   0.106E-02 0.959E-02 0.159E-02
   0.103E+04 0.747E+03 -.956E+03   -.103E+04 -.746E+03 0.956E+03   -.935E+00 -.846E+00 0.555E+00   0.679E-02 0.301E-02 -.390E-02
   0.173E+04 0.129E+04 -.111E+04   -.173E+04 -.128E+04 0.111E+04   -.652E+01 -.393E+01 0.377E+01   0.266E-02 0.715E-02 -.298E-02
   0.103E+04 -.746E+03 -.954E+03   -.103E+04 0.745E+03 0.954E+03   -.941E+00 0.846E+00 0.565E+00   0.756E-02 -.320E-02 -.373E-02
   0.174E+04 -.128E+04 -.111E+04   -.173E+04 0.128E+04 0.111E+04   -.652E+01 0.394E+01 0.374E+01   0.190E-02 -.938E-02 -.294E-02
   -.531E+03 -.116E+04 -.871E+03   0.530E+03 0.116E+04 0.869E+03   0.876E+00 0.126E+01 0.133E+01   -.120E-02 -.813E-02 -.728E-02
   -.649E+03 -.208E+04 -.106E+04   0.647E+03 0.208E+04 0.105E+04   0.189E+01 0.710E+01 0.315E+01   0.187E-02 -.935E-02 0.161E-02
   -.188E+04 -.766E+00 -.113E+04   0.187E+04 0.766E+00 0.113E+04   0.229E+01 0.185E-03 0.910E+00   0.194E-02 0.109E-03 -.255E-02
   0.409E+03 0.131E+04 0.682E+03   -.409E+03 -.131E+04 -.682E+03   0.273E-01 -.118E+01 0.843E-01   0.121E-02 -.114E-02 0.308E-02
   0.678E+03 0.208E+04 0.110E+04   -.675E+03 -.207E+04 -.109E+04   -.315E+01 -.638E+01 -.534E+01   0.343E-02 0.107E-01 -.550E-02
   0.138E+04 0.734E+00 0.630E+03   -.138E+04 -.737E+00 -.630E+03   -.138E+01 0.408E-02 -.493E+00   0.850E-02 -.188E-03 0.371E-02
   0.220E+04 0.485E+00 0.110E+04   -.219E+04 -.473E+00 -.109E+04   -.715E+01 -.119E-01 -.399E+01   0.242E-02 0.126E-03 0.481E-03
   0.410E+03 -.131E+04 0.684E+03   -.410E+03 0.131E+04 -.684E+03   0.277E-01 0.118E+01 0.939E-01   0.125E-02 0.153E-02 0.320E-02
   0.679E+03 -.207E+04 0.110E+04   -.675E+03 0.207E+04 -.109E+04   -.317E+01 0.637E+01 -.537E+01   0.320E-02 -.114E-01 -.574E-02
   -.130E+04 -.764E+03 0.486E+03   0.130E+04 0.764E+03 -.486E+03   0.951E+00 0.724E+00 -.672E+00   -.294E-02 -.132E-02 0.220E-02
   -.178E+04 -.127E+04 0.105E+04   0.178E+04 0.126E+04 -.105E+04   0.599E+01 0.446E+01 -.383E+01   -.863E-02 -.482E-02 0.374E-02
   -.130E+04 0.762E+03 0.486E+03   0.130E+04 -.762E+03 -.486E+03   0.949E+00 -.731E+00 -.672E+00   -.335E-02 0.145E-02 0.262E-02
   -.178E+04 0.127E+04 0.105E+04   0.178E+04 -.126E+04 -.105E+04   0.599E+01 -.445E+01 -.383E+01   -.874E-02 0.559E-02 0.305E-02
   -.702E+02 -.362E+00 0.153E+04   0.701E+02 0.363E+00 -.153E+04   0.366E-01 -.219E-02 -.140E+01   0.201E-03 0.242E-03 0.109E-01
   0.236E+02 -.163E+00 0.245E+04   -.239E+02 0.162E+00 -.244E+04   0.246E+00 0.655E-03 -.823E+01   0.638E-02 0.164E-04 -.203E-03
   0.404E+03 0.127E+04 -.206E+04   -.402E+03 -.126E+04 0.206E+04   -.201E+01 -.226E+01 0.620E+01   0.471E-03 0.479E-02 -.272E-02
   -.124E+04 0.715E+03 -.200E+04   0.123E+04 -.714E+03 0.199E+04   0.404E+01 -.712E+00 0.668E+01   -.521E-02 0.785E-02 -.378E-02
   0.136E+04 0.725E+00 -.206E+04   -.136E+04 -.712E+00 0.205E+04   -.233E+01 -.136E-01 0.745E+01   -.168E-02 -.690E-04 -.686E-02
   0.405E+03 -.127E+04 -.206E+04   -.403E+03 0.126E+04 0.206E+04   -.199E+01 0.226E+01 0.620E+01   0.899E-03 -.442E-02 -.271E-02
   -.123E+04 -.716E+03 -.200E+04   0.123E+04 0.715E+03 0.199E+04   0.403E+01 0.717E+00 0.668E+01   -.491E-02 -.752E-02 -.375E-02
   0.761E+03 0.225E+04 -.458E+03   -.760E+03 -.225E+04 0.458E+03   -.139E+01 -.486E+01 0.703E+00   -.690E-04 0.417E-02 0.301E-02
   -.202E+04 0.128E+04 -.560E+03   0.201E+04 -.128E+04 0.559E+03   0.640E+01 -.234E+01 0.850E+00   -.184E-02 0.404E-02 -.273E-02
   -.762E+03 0.225E+04 0.487E+03   0.760E+03 -.225E+04 -.485E+03   0.154E+01 -.500E+01 -.126E+01   0.122E-02 0.147E-02 0.258E-02
   0.240E+04 0.100E+01 -.496E+03   -.240E+04 -.999E+00 0.495E+03   -.564E+01 -.484E-02 0.114E+01   0.371E-02 0.188E-03 0.143E-02
   0.195E+04 0.140E+04 0.464E+03   -.195E+04 -.140E+04 -.462E+03   -.435E+01 -.329E+01 -.162E+01   0.250E-02 0.503E-02 0.722E-03
   0.763E+03 -.225E+04 -.458E+03   -.762E+03 0.225E+04 0.458E+03   -.140E+01 0.485E+01 0.712E+00   -.241E-03 -.400E-02 0.337E-02
   0.195E+04 -.140E+04 0.465E+03   -.195E+04 0.140E+04 -.463E+03   -.435E+01 0.330E+01 -.162E+01   0.247E-02 -.511E-02 0.112E-02
   -.202E+04 -.128E+04 -.561E+03   0.201E+04 0.128E+04 0.560E+03   0.640E+01 0.235E+01 0.847E+00   -.166E-02 -.404E-02 -.255E-02
   -.761E+03 -.225E+04 0.486E+03   0.760E+03 0.225E+04 -.485E+03   0.156E+01 0.499E+01 -.127E+01   0.123E-02 -.129E-02 0.299E-02
   -.244E+04 -.752E+00 0.268E+03   0.243E+04 0.753E+00 -.269E+03   0.737E+01 -.204E-03 0.153E+01   -.324E-02 0.129E-03 -.104E-02
   0.121E+04 0.903E+03 0.196E+04   -.121E+04 -.900E+03 -.195E+04   -.286E+01 -.314E+01 -.440E+01   0.328E-02 0.236E-02 0.372E-02
   -.477E+03 0.141E+04 0.196E+04   0.476E+03 -.140E+04 -.195E+04   0.377E+00 -.347E+01 -.481E+01   -.531E-02 0.274E-02 0.230E-02
   0.121E+04 -.902E+03 0.196E+04   -.121E+04 0.899E+03 -.195E+04   -.285E+01 0.316E+01 -.441E+01   0.340E-02 -.165E-02 0.407E-02
   -.476E+03 -.141E+04 0.196E+04   0.475E+03 0.140E+04 -.195E+04   0.366E+00 0.349E+01 -.481E+01   -.510E-02 -.265E-02 0.237E-02
   -.150E+04 -.356E+00 0.194E+04   0.150E+04 0.358E+00 -.193E+04   0.307E+01 -.286E-02 -.468E+01   -.193E-02 0.836E-04 0.117E-02
 -----------------------------------------------------------------------------------------------
   0.196E+01 -.132E-02 0.290E+01   0.227E-12 0.767E-12 0.296E-11   -.219E+01 0.557E-02 -.291E+01   0.128E-01 0.112E-02 -.672E-02
 
 
 POSITION                                       TOTAL-FORCE (eV/Angst)
 -----------------------------------------------------------------------------------
     14.13355     13.96157     14.24084        -0.006387     -0.003439     -0.001414
     14.14801     13.96140     16.77779         0.004080     -0.000518      0.000642
     14.72219     11.91740     15.20355        -0.001136     -0.002796      0.009436
     15.22306      9.84634     16.01827        -0.001933     -0.014247     -0.001774
     12.38208     12.72399     15.28605        -0.002729     -0.001048     -0.000010
     10.71817     11.40225     16.06104        -0.012557      0.012436      0.004270
     12.38133     15.19744     15.28461        -0.006595      0.002015      0.000308
     10.71707     16.51721     16.06238        -0.010817     -0.007375      0.002793
     14.71986     16.00571     15.20404         0.002144      0.005105      0.011464
     15.22047     18.07709     16.01883        -0.003296      0.012330     -0.002229
     16.40345     13.96202     15.38103        -0.007795      0.000214      0.000079
     13.42606     11.96160     13.08039        -0.000242      0.009390     -0.000889
     12.82424      9.98431     12.15137        -0.000726     -0.012843      0.011114
     11.98059     13.96039     13.12485        -0.009763      0.000440     -0.004739
      9.96221     13.96103     12.09661         0.002463      0.000139     -0.008201
     13.42435     15.96069     13.07932        -0.002133     -0.007772     -0.002067
     12.82385     17.94053     12.15433        -0.000487      0.013443      0.012662
     15.84417     15.20527     13.15002         0.003139     -0.003482     -0.005768
     17.35086     16.42017     11.98740         0.007940      0.003400     -0.008931
     15.84516     12.71929     13.15001         0.001528      0.003555     -0.006464
     17.35108     11.50290     11.98797         0.008286     -0.005082     -0.010095
     14.11215     13.96138     11.80593         0.001430     -0.000863     -0.011780
     13.98367     13.96115      9.54092        -0.005691     -0.000158      0.003788
     13.32807     11.42564     17.09172        -0.000223     -0.003404      0.003841
     15.94160     12.13132     17.15325         0.005703     -0.006451      0.008269
     11.41377     13.96193     17.09433         0.010307     -0.000360      0.008059
     13.32322     16.49627     17.09139        -0.000073      0.002498      0.003962
     15.93938     15.79274     17.15392         0.005757      0.005968      0.007005
     12.83123     10.30229     14.78988         0.011177     -0.005474     -0.005322
     17.03484     11.42635     14.80433         0.002487     -0.002272      0.004044
     15.20016     10.29870     13.33312        -0.004041     -0.000182     -0.001671
     10.24233     13.96043     14.81181        -0.001073     -0.000101     -0.009231
     10.99236     11.74120     13.42991        -0.001187     -0.005899     -0.001070
     12.82868     17.61969     14.78960         0.010323      0.005101     -0.005908
     10.99034     16.17918     13.42939        -0.000916      0.006147     -0.001676
     17.03272     16.49743     14.80541         0.001116      0.002805      0.004025
     15.19665     17.62542     13.33535        -0.003848     -0.000640     -0.002363
     17.90370     13.96228     13.09834        -0.002683      0.000051      0.004047
     12.16878     12.63985     11.05779        -0.002086     -0.004897     -0.002970
     14.84682     11.74830     11.06399         0.008441      0.001652     -0.001957
     12.16676     15.27922     11.05723        -0.002579      0.003870     -0.003079
     14.84637     16.17431     11.06380         0.008149     -0.001164     -0.001634
     16.41009     13.96184     11.03340        -0.003472     -0.000089      0.001438
 -----------------------------------------------------------------------------------
    total drift:                               -0.221640      0.005360     -0.011784


--------------------------------------------------------------------------------------------------------



  FREE ENERGIE OF THE ION-ELECTRON SYSTEM (eV)
  ---------------------------------------------------
  free  energy   TOTEN  =      -126.13223292 eV

  energy  without entropy=     -126.13223292  energy(sigma->0) =     -126.13223292
 
 d Force = 0.3010003E-03[ 0.233E-03, 0.369E-03]  d Energy = 0.2934309E-03 0.757E-05
 d Force = 0.2470677E+02[ 0.247E+02, 0.247E+02]  d Ewald  = 0.2470677E+02-0.466E-06


--------------------------------------------------------------------------------------------------------


    POTLOK:  cpu time    1.1372: real time    1.1455


--------------------------------------------------------------------------------------------------------


 Conjugate gradient step on ions:
 trial-energy change:   -0.000293  1 .order   -0.000301   -0.000369   -0.000233
  (g-gl).g = 0.179E-03      g.g   = 0.432E-03  gl.gl    = 0.963E-03
 g(Force)  = 0.432E-03   g(Stress)= 0.000E+00 ortho     = 0.718E-04
 gamma     =   0.18620
 trial     =   0.82805
 opt step  =   2.25945  (harmonic =   2.25945) maximal distance =0.00315945
 next E    =  -126.132442   (d E  =  -0.00050)


--------------------------------------------------------------------------------------------------------


  
 reached required accuracy - stopping structural energy minimisation
     LOOP+:  cpu time  425.0277: real time  426.3663
    4ORBIT:  cpu time    0.0000: real time    0.0000
 


 total charge     
 
# of ion     s       p       d       tot
----------------------------------------
  1        0.503   0.553   9.191  10.246
  2        0.405   0.285   9.205   9.895
  3        0.492   0.484   9.196  10.171
  4        0.445   0.155   9.267   9.866
  5        0.480   0.470   9.187  10.137
  6        0.442   0.138   9.275   9.855
  7        0.481   0.470   9.187  10.138
  8        0.442   0.138   9.275   9.855
  9        0.492   0.484   9.196  10.171
 10        0.445   0.155   9.267   9.866
 11        0.405   0.287   9.204   9.897
 12        0.484   0.479   9.187  10.150
 13        0.446   0.132   9.279   9.857
 14        0.486   0.485   9.195  10.166
 15        0.450   0.137   9.268   9.855
 16        0.484   0.479   9.187  10.149
 17        0.446   0.131   9.279   9.857
 18        0.481   0.472   9.187  10.141
 19        0.442   0.139   9.274   9.855
 20        0.482   0.472   9.187  10.141
 21        0.442   0.139   9.274   9.856
 22        0.485   0.483   9.194  10.162
 23        0.449   0.134   9.269   9.853
 24        0.415   0.198   9.257   9.869
 25        0.437   0.171   9.264   9.872
 26        0.418   0.172   9.268   9.859
 27        0.415   0.198   9.257   9.869
 28        0.437   0.171   9.264   9.872
 29        0.406   0.238   9.236   9.880
 30        0.416   0.199   9.257   9.871
 31        0.405   0.232   9.239   9.876
 32        0.404   0.225   9.244   9.873
 33        0.405   0.224   9.242   9.872
 34        0.406   0.239   9.236   9.881
 35        0.405   0.224   9.242   9.872
 36        0.416   0.198   9.257   9.871
 37        0.405   0.232   9.239   9.876
 38        0.418   0.181   9.264   9.864
 39        0.404   0.220   9.247   9.870
 40        0.404   0.219   9.245   9.868
 41        0.404   0.220   9.247   9.870
 42        0.404   0.218   9.245   9.867
 43        0.405   0.228   9.243   9.875
------------------------------------------------
tot       18.835  11.509 397.224 427.568
 


 magnetization (x)
 
# of ion     s       p       d       tot
----------------------------------------
  1       -0.002  -0.004   0.091   0.086
  2       -0.001   0.011  -0.005   0.005
  3       -0.001   0.007   0.020   0.026
  4        0.047   0.007   0.013   0.067
  5       -0.001   0.010   0.018   0.027
  6        0.049   0.009   0.010   0.068
  7       -0.001   0.010   0.018   0.027
  8        0.049   0.009   0.010   0.068
  9       -0.001   0.007   0.020   0.026
 10        0.047   0.007   0.013   0.067
 11       -0.001   0.011  -0.005   0.005
 12       -0.000   0.008   0.017   0.026
 13        0.052   0.007   0.012   0.070
 14       -0.001   0.009  -0.006   0.003
 15       -0.001   0.004   0.013   0.016
 16       -0.000   0.008   0.017   0.026
 17        0.052   0.007   0.012   0.070
 18       -0.001   0.010   0.017   0.027
 19        0.049   0.009   0.011   0.069
 20       -0.001   0.010   0.017   0.027
 21        0.049   0.009   0.011   0.069
 22       -0.001   0.009  -0.005   0.003
 23       -0.001   0.004   0.012   0.015
 24        0.005   0.008   0.024   0.037
 25        0.010   0.006   0.019   0.035
 26        0.015   0.008   0.019   0.043
 27        0.005   0.009   0.024   0.037
 28        0.010   0.006   0.019   0.035
 29        0.005   0.013   0.025   0.043
 30        0.006   0.009   0.024   0.038
 31        0.005   0.013   0.024   0.043
 32        0.008   0.006   0.034   0.047
 33        0.007   0.008   0.023   0.038
 34        0.005   0.013   0.025   0.043
 35        0.007   0.008   0.023   0.038
 36        0.006   0.009   0.024   0.038
 37        0.005   0.013   0.024   0.043
 38        0.015   0.008   0.021   0.044
 39        0.005   0.003   0.028   0.036
 40        0.007   0.008   0.023   0.039
 41        0.005   0.003   0.028   0.036
 42        0.007   0.008   0.023   0.039
 43        0.007   0.006   0.036   0.049
------------------------------------------------
tot        0.526   0.347   0.820   1.693
 

 total amount of memory used by VASP on root node   189908. kBytes
========================================================================

   base      :      30000. kBytes
   nonl-proj :      17438. kBytes
   fftplans  :      25667. kBytes
   grid      :      64857. kBytes
   one-center:        124. kBytes
   wavefun   :      51822. kBytes
 
  
  
 General timing and accounting informations for this job:
 ========================================================
  
                  Total CPU time used (sec):     9285.887
                            User time (sec):     9171.517
                          System time (sec):      114.369
                         Elapsed time (sec):     9323.152
  
                   Maximum memory used (kb):      310220.
                   Average memory used (kb):           0.
  
                          Minor page faults:      8626348
                          Major page faults:            0
                 Voluntary context switches:         8222
