 vasp.5.4.1 05Feb16 (build Apr 11 2020 03:28:46) gamma-only                     
  
 executed on           IFC91_ompi date 2022.05.04  15:51:11
 running on   24 total cores
 distrk:  each k-point on   24 cores,    1 groups
 distr:  one band on NCORES_PER_BAND=   6 cores,    4 groups


--------------------------------------------------------------------------------------------------------


 INCAR:
 POTCAR:    PAW_PBE Cu 22Jun2005                  
 POTCAR:    PAW_PBE Cu 22Jun2005                  
   VRHFIN =Cu: d10 p1                                                           
   LEXCH  = PE                                                                  
   EATOM  =  1390.9808 eV,  102.2342 Ry                                         
                                                                                
   TITEL  = PAW_PBE Cu 22Jun2005                                                
   LULTRA =        F    use ultrasoft PP ?                                      
   IUNSCR =        1    unscreen: 0-lin 1-nonlin 2-no                           
   RPACOR =    2.000    partial core radius                                     
   POMASS =   63.546; ZVAL   =   11.000    mass and valenz                      
   RCORE  =    2.300    outmost cutoff radius                                   
   RWIGS  =    2.200; RWIGS  =    1.164    wigner-seitz radius (au A)           
   ENMAX  =  295.446; ENMIN  =  221.585 eV                                      
   ICORE  =        3    local potential                                         
   LCOR   =        T    correct aug charges                                     
   LPAW   =        T    paw PP                                                  
   EAUG   =  586.980                                                            
   DEXC   =    0.000                                                            
   RMAX   =    2.344    core radius for proj-oper                               
   RAUG   =    1.300    factor for augmentation sphere                          
   RDEP   =    2.302    radius for radial grids                                 
   RDEPT  =    1.771    core radius for aug-charge                              
                                                                                
   Atomic configuration                                                         
    9 entries                                                                   
     n  l   j            E        occ.                                          
     1  0  0.50     -8850.2468   2.0000                                         
     2  0  0.50     -1062.3498   2.0000                                         
     2  1  1.50      -916.8226   6.0000                                         
     3  0  0.50      -114.6929   2.0000                                         
     3  1  1.50       -72.1325   6.0000                                         
     3  2  2.50        -5.0394  10.0000                                         
     4  0  0.50        -4.6097   1.0000                                         
     4  1  0.50        -4.0817   0.0000                                         
     4  3  2.50        -1.3606   0.0000                                         
   Description                                                                  
     l       E           TYP  RCUT    TYP  RCUT                                 
     2     -5.0393973     23  2.200                                             
     2     10.8846608     23  2.200                                             
     0     -4.6097109     23  2.200                                             
     0      8.2520465     23  2.200                                             
     1     -2.7211652     23  2.200                                             
     1     21.7055443     23  2.200                                             
     3      2.7211652     23  2.300                                             
  local pseudopotential read in
  partial core-charges read in
  partial kinetic energy density read in
  atomic valenz-charges read in
  non local Contribution for L=           2  read in
    real space projection operators read in
  non local Contribution for L=           2  read in
    real space projection operators read in
  non local Contribution for L=           0  read in
    real space projection operators read in
  non local Contribution for L=           0  read in
    real space projection operators read in
  non local Contribution for L=           1  read in
    real space projection operators read in
  non local Contribution for L=           1  read in
    real space projection operators read in
    PAW grid and wavefunctions read in
 
   number of l-projection  operators is LMAX  =           6
   number of lm-projection operators is LMMAX =          18
 

 ----------------------------------------------------------------------------- 
|                                                                             |
|  ADVICE TO THIS USER RUNNING 'VASP/VAMP'   (HEAR YOUR MASTER'S VOICE ...):  |
|                                                                             |
|      You have a (more or less) 'large supercell' and for larger cells       |
|      it might be more efficient to use real space projection opertators     |
|      So try LREAL= Auto  in the INCAR   file.                               |
|      Mind: At the moment your POTCAR file does not contain real space       |
|       projectors, and has to be modified,  BUT if you                       |
|      want to do an extremely  accurate calculation you might also keep the  |
|      reciprocal projection scheme          (i.e. LREAL=.FALSE.)             |
|                                                                             |
 ----------------------------------------------------------------------------- 

  PAW_PBE Cu 22Jun2005                  :
 energy of atom  1       EATOM=-1390.9808
 kinetic energy error for atom=    0.0452 (will be added to EATOM!!)
 
 
 POSCAR: Cu-45-6 <s> Cu </s>                     
  positions in direct lattice
  velocities in cartesian coordinates
 exchange correlation table for  LEXCH =        8
   RHO(1)=    0.500       N(1)  =     2000
   RHO(2)=  100.500       N(2)  =     4000
 


--------------------------------------------------------------------------------------------------------


 ion  position               nearest neighbor table
   1  0.473  0.430  0.414-   6 2.47  36 2.49  29 2.51  24 2.52   5 2.53   7 2.53   3 2.55   2 2.62

   2  0.472  0.430  0.500-  36 2.42  37 2.43  10 2.48  25 2.49  24 2.49   5 2.50  15 2.50  29 2.56
                            28 2.56   4 2.58   1 2.62  13 2.62
   3  0.553  0.455  0.415-   6 2.48  30 2.49  24 2.51   8 2.52   5 2.52  21 2.53   1 2.55   4 2.59

   4  0.553  0.456  0.500-  31 2.43  30 2.43  24 2.48  25 2.48  11 2.50   5 2.51  15 2.52  21 2.56
                            20 2.56   2 2.58   3 2.59  14 2.59
   5  0.495  0.497  0.457-   2 2.50  10 2.51  11 2.51   9 2.51   8 2.51   4 2.51  12 2.52   3 2.52
                             6 2.52   1 2.53   7 2.53  15 2.58
   6  0.496  0.497  0.374-   1 2.47   9 2.47   7 2.48   3 2.48   8 2.48   5 2.52
   7  0.424  0.497  0.414-   6 2.48  38 2.49  29 2.51  27 2.52   5 2.53   1 2.53   9 2.56  10 2.62

   8  0.554  0.538  0.415-   6 2.48  21 2.51  32 2.51  23 2.51   5 2.51   3 2.52   9 2.52  11 2.57

   9  0.475  0.565  0.415-   6 2.47  34 2.49   5 2.51  27 2.51  23 2.52   8 2.52   7 2.56  12 2.59

  10  0.425  0.497  0.500-  39 2.42  38 2.43   2 2.48  27 2.49  26 2.49   5 2.51  15 2.51  29 2.56
                            28 2.56  12 2.59  17 2.62   7 2.62
  11  0.553  0.538  0.500-  32 2.47  33 2.47   4 2.50  12 2.50  15 2.51   5 2.51  20 2.57   8 2.57
                            18 2.57  21 2.57  23 2.58  22 2.58
  12  0.476  0.565  0.500-  35 2.43  34 2.43  26 2.48  27 2.48  11 2.50  15 2.51   5 2.52  22 2.56
                            23 2.56  19 2.59   9 2.59  10 2.59
  13  0.473  0.430  0.586-  16 2.47  37 2.49  28 2.51  25 2.52  15 2.53  17 2.53  14 2.55   2 2.62

  14  0.553  0.455  0.585-  16 2.48  31 2.48  25 2.51  15 2.51  18 2.52  20 2.52  13 2.55   4 2.59

  15  0.495  0.497  0.543-   2 2.50  10 2.51  11 2.51  19 2.51  14 2.51  12 2.51  18 2.52   4 2.52
                            16 2.52  13 2.53  17 2.53   5 2.58
  16  0.496  0.497  0.626-  19 2.47  13 2.47  17 2.47  14 2.48  18 2.48  15 2.52
  17  0.424  0.497  0.586-  16 2.47  39 2.49  28 2.51  26 2.52  15 2.53  13 2.53  19 2.56  10 2.62

  18  0.554  0.538  0.585-  16 2.48  20 2.51  22 2.51  33 2.51  15 2.52  14 2.52  19 2.52  11 2.57

  19  0.475  0.565  0.585-  16 2.47  35 2.49  26 2.51  15 2.51  18 2.52  22 2.52  17 2.56  12 2.59

  20  0.612  0.497  0.544-  41 2.46  40 2.46  31 2.49  33 2.50  18 2.51  14 2.52   4 2.56  11 2.57
                            21 2.69
  21  0.612  0.497  0.456-  41 2.46  40 2.46  30 2.49  32 2.50   8 2.51   3 2.53   4 2.56  11 2.57
                            20 2.69
  22  0.534  0.607  0.544-  43 2.46  42 2.47  35 2.49  33 2.50  18 2.51  19 2.52  12 2.56  11 2.58
                            23 2.70
  23  0.534  0.607  0.456-  43 2.46  42 2.47  34 2.49  32 2.50   8 2.51   9 2.52  12 2.56  11 2.58
                            22 2.70
  24  0.530  0.389  0.459-   4 2.48   2 2.49  36 2.49  25 2.51   3 2.51  30 2.52   1 2.52
  25  0.530  0.389  0.541-   4 2.48   2 2.49  37 2.49  24 2.51  14 2.51  31 2.52  13 2.52
  26  0.405  0.565  0.541-  12 2.48  10 2.49  39 2.50  27 2.51  19 2.51  17 2.52  35 2.52
  27  0.405  0.565  0.459-  12 2.48  10 2.49  38 2.50  26 2.51   9 2.51   7 2.52  34 2.52
  28  0.401  0.430  0.545-  44 2.46  45 2.46  37 2.50  39 2.50  17 2.51  13 2.51  10 2.56   2 2.56
                            29 2.75
  29  0.401  0.430  0.455-  44 2.46  45 2.46  36 2.50  38 2.50   7 2.51   1 2.51  10 2.56   2 2.56
                            28 2.75
  30  0.609  0.415  0.459-   4 2.43   3 2.49  21 2.49  31 2.49  40 2.49  24 2.52
  31  0.609  0.415  0.541-   4 2.43  14 2.48  40 2.48  20 2.49  30 2.49  25 2.52
  32  0.611  0.579  0.459-  11 2.47  33 2.47  42 2.48  41 2.48  21 2.50  23 2.50   8 2.51
  33  0.611  0.579  0.541-  32 2.47  11 2.47  42 2.48  41 2.48  20 2.50  22 2.50  18 2.51
  34  0.455  0.631  0.459-  12 2.43  35 2.49  23 2.49   9 2.49  43 2.49  27 2.52
  35  0.455  0.631  0.541-  12 2.43  34 2.49  22 2.49  19 2.49  43 2.49  26 2.52
  36  0.452  0.365  0.459-   2 2.42  45 2.47  37 2.48   1 2.49  24 2.49  29 2.50
  37  0.452  0.365  0.541-   2 2.43  45 2.47  36 2.48  13 2.49  25 2.49  28 2.50
  38  0.356  0.498  0.459-  10 2.43  39 2.47  44 2.48   7 2.49  27 2.50  29 2.50
  39  0.356  0.498  0.541-  10 2.42  38 2.47  44 2.48  17 2.49  26 2.50  28 2.50
  40  0.667  0.456  0.500-  41 2.45  20 2.46  21 2.46  31 2.48  30 2.49
  41  0.667  0.536  0.500-  40 2.45  20 2.46  21 2.46  32 2.48  33 2.48
  42  0.590  0.646  0.500-  43 2.45  23 2.47  22 2.47  33 2.48  32 2.48
  43  0.513  0.672  0.500-  42 2.45  23 2.46  22 2.46  34 2.49  35 2.49
  44  0.334  0.431  0.500-  28 2.46  45 2.46  29 2.46  39 2.48  38 2.48
  45  0.381  0.365  0.500-  44 2.46  29 2.46  28 2.46  36 2.47  37 2.47
 
  LATTYP: Found a simple cubic cell.
 ALAT       =    30.3700053343
  
  Lattice vectors:
  
 A1 = (  30.3700053343,   0.0000000000,   0.0000000000)
 A2 = (   0.0000000000,  30.3700053343,   0.0000000000)
 A3 = (   0.0000000000,   0.0000000000,  30.3700053343)


Analysis of symmetry for initial positions (statically):
=====================================================================
 Subroutine PRICEL returns:
 Original cell was already a primitive cell.
 

 Routine SETGRP: Setting up the symmetry group for a 
 simple cubic supercell.


 Subroutine GETGRP returns: Found  1 space group operations
 (whereof  1 operations were pure point group operations)
 out of a pool of 48 trial point group operations.


The static configuration has the point symmetry C_1 .


Analysis of symmetry for dynamics (positions and initial velocities):
=====================================================================
 Subroutine PRICEL returns:
 Original cell was already a primitive cell.
 

 Routine SETGRP: Setting up the symmetry group for a 
 simple cubic supercell.


 Subroutine GETGRP returns: Found  1 space group operations
 (whereof  1 operations were pure point group operations)
 out of a pool of 48 trial point group operations.


The dynamic configuration has the point symmetry C_1 .


Analysis of structural, dynamic, and magnetic symmetry:
=====================================================================
 Subroutine PRICEL returns:
 Original cell was already a primitive cell.
 

 Routine SETGRP: Setting up the symmetry group for a 
 simple cubic supercell.


 Subroutine GETGRP returns: Found  1 space group operations
 (whereof  1 operations were pure point group operations)
 out of a pool of 48 trial point group operations.


The magnetic configuration has the point symmetry C_1 .


 Subroutine INISYM returns: Found  1 space group operations
 (whereof  1 operations are pure point group operations),
 and found     1 'primitive' translations

 
 
 KPOINTS: Gamma-point only                        
  k-points in reciprocal lattice
Space group operators:
 irot       det(A)        alpha          n_x          n_y          n_z        tau_x        tau_y        tau_z
    1     1.000000     0.000000     1.000000     0.000000     0.000000     0.000000     0.000000     0.000000


--------------------------------------------------------------------------------------------------------




 Dimension of arrays:
   k-points           NKPTS =      1   k-points in BZ     NKDIM =      1   number of bands    NBANDS=    368
   number of dos      NEDOS =    301   number of ions     NIONS =     45
   non local maximal  LDIM  =      6   non local SUM 2l+1 LMDIM =     18
   total plane-waves  NPLWV = ******
   max r-space proj   IRMAX =      1   max aug-charges    IRDMAX=   2368
   dimension x,y,z NGX =   128 NGY =  128 NGZ =  128
   dimension x,y,z NGXF=   256 NGYF=  256 NGZF=  256
   support grid    NGXF=   256 NGYF=  256 NGZF=  256
   ions per type =              45
 NGX,Y,Z   is equivalent  to a cutoff of   7.01,  7.01,  7.01 a.u.
 NGXF,Y,Z  is equivalent  to a cutoff of  14.01, 14.01, 14.01 a.u.


 I would recommend the setting:
   dimension x,y,z NGX =   128 NGY =  128 NGZ =  128
 SYSTEM =  unknown system                          
 POSCAR =  Cu-45-6 <s> Cu </s>                     

 Startparameter for this run:
   NWRITE =      2    write-flag & timer
   PREC   = normal    normal or accurate (medium, high low for compatibility)
   ISTART =      0    job   : 0-new  1-cont  2-samecut
   ICHARG =      2    charge: 1-file 2-atom 10-const
   ISPIN  =      2    spin polarized calculation?
   LNONCOLLINEAR =      F non collinear calculations
   LSORBIT =      F    spin-orbit coupling
   INIWAV =      1    electr: 0-lowe 1-rand  2-diag
   LASPH  =      F    aspherical Exc in radial PAW
   METAGGA=      F    non-selfconsistent MetaGGA calc.

 Electronic Relaxation 1
   ENCUT  =  295.4 eV  21.71 Ry    4.66 a.u.  42.56 42.56 42.56*2*pi/ulx,y,z
   ENINI  =  295.4     initial cutoff
   ENAUG  =  587.0 eV  augmentation charge cutoff
   NELM   =     60;   NELMIN=  2; NELMDL=-12     # of ELM steps 
   EDIFF  = 0.1E-05   stopping-criterion for ELM
   LREAL  =      F    real-space projection
   NLSPLINE    = F    spline interpolate recip. space projectors
   LCOMPAT=      F    compatible to vasp.4.4
   GGA_COMPAT  = T    GGA compatible to vasp.4.4-vasp.4.6
   LMAXPAW     = -100 max onsite density
   LMAXMIX     =    2 max onsite mixed and CHGCAR
   VOSKOWN=      0    Vosko Wilk Nusair interpolation
   ROPT   =    0.00000
 Ionic relaxation
   EDIFFG = -.3E-01   stopping-criterion for IOM
   NSW    =   1000    number of steps for IOM
   NBLOCK =      1;   KBLOCK =   1000    inner block; outer block 
   IBRION =      2    ionic relax: 0-MD 1-quasi-New 2-CG
   NFREE  =      1    steps in history (QN), initial steepest desc. (CG)
   ISIF   =      2    stress and relaxation
   IWAVPR =     11    prediction:  0-non 1-charg 2-wave 3-comb
   ISYM   =      2    0-nonsym 1-usesym 2-fastsym
   LCORR  =      T    Harris-Foulkes like correction to forces

   POTIM  = 0.5000    time-step for ionic-motion
   TEIN   =    0.0    initial temperature
   TEBEG  =    0.0;   TEEND  =   0.0 temperature during run
   SMASS  =  -3.00    Nose mass-parameter (am)
   estimated Nose-frequenzy (Omega)   =  0.10E-29 period in steps =****** mass=  -0.211E-25a.u.
   SCALEE = 1.0000    scale energy and forces
   NPACO  =    256;   APACO  = 16.0  distance and # of slots for P.C.
   PSTRESS=    0.0 pullay stress

  Mass of Ions in am
   POMASS =  63.55
  Ionic Valenz
   ZVAL   =  11.00
  Atomic Wigner-Seitz radii
   RWIGS  =  -1.00
  virtual crystal weights 
   VCA    =   1.00
   NELECT =     495.0000    total number of electrons
   NUPDOWN=      -1.0000    fix difference up-down

 DOS related values:
   EMIN   =  10.00;   EMAX   =-10.00  energy-range for DOS
   EFERMI =   0.00
   ISMEAR =     0;   SIGMA  =   0.00  broadening in eV -4-tet -1-fermi 0-gaus

 Electronic relaxation 2 (details)
   IALGO  =     48    algorithm
   LDIAG  =      T    sub-space diagonalisation (order eigenvalues)
   LSUBROT=      F    optimize rotation matrix (better conditioning)
   TURBO    =      0    0=normal 1=particle mesh
   IRESTART =      0    0=no restart 2=restart with 2 vectors
   NREBOOT  =      0    no. of reboots
   NMIN     =      0    reboot dimension
   EREF     =   0.00    reference energy to select bands
   IMIX   =      4    mixing-type and parameters
     AMIX     =   0.40;   BMIX     =  1.00
     AMIX_MAG =   1.60;   BMIX_MAG =  1.00
     AMIN     =   0.10
     WC   =   100.;   INIMIX=   1;  MIXPRE=   1;  MAXMIX= -45

 Intra band minimization:
   WEIMIN = 0.0010     energy-eigenvalue tresh-hold
   EBREAK =  0.68E-09  absolut break condition
   DEPER  =   0.30     relativ break condition  

   TIME   =   0.40     timestep for ELM

  volume/ion in A,a.u.               =     622.48      4200.67
  Fermi-wavevector in a.u.,A,eV,Ry     =   0.426414  0.805806  2.473935  0.181829
  Thomas-Fermi vector in A             =   1.392418
 
 Write flags
   LWAVE  =      F    write WAVECAR
   LCHARG =      F    write CHGCAR
   LVTOT  =      F    write LOCPOT, total local potential
   LVHAR  =      F    write LOCPOT, Hartree potential only
   LELF   =      F    write electronic localiz. function (ELF)
   LORBIT =     11    0 simple, 1 ext, 2 COOP (PROOUT)


 Dipole corrections
   LMONO  =      F    monopole corrections only (constant potential shift)
   LDIPOL =      F    correct potential (dipole corrections)
   IDIPOL =      0    1-x, 2-y, 3-z, 4-all directions 
   EPSILON=  1.0000000 bulk dielectric constant

 Exchange correlation treatment:
   GGA     =    PE    GGA type
   LEXCH   =     8    internal setting for exchange type
   VOSKOWN=      0    Vosko Wilk Nusair interpolation
   LHFCALC =     F    Hartree Fock is set to
   LHFONE  =     F    Hartree Fock one center treatment
   AEXX    =    0.0000 exact exchange contribution

 Linear response parameters
   LEPSILON=     F    determine dielectric tensor
   LRPA    =     F    only Hartree local field effects (RPA)
   LNABLA  =     F    use nabla operator in PAW spheres
   LVEL    =     F    velocity operator in full k-point grid
   LINTERFAST=   F  fast interpolation
   KINTER  =     0    interpolate to denser k-point grid
   CSHIFT  =0.1000    complex shift for real part using Kramers Kronig
   OMEGAMAX=  -1.0    maximum frequency
   DEG_THRESHOLD= 0.2000000E-02 threshold for treating states as degnerate
   RTIME   =    0.100 relaxation time in fs

 Orbital magnetization related:
   ORBITALMAG=     F  switch on orbital magnetization
   LCHIMAG   =     F  perturbation theory with respect to B field
   DQ        =  0.001000  dq finite difference perturbation B field



--------------------------------------------------------------------------------------------------------


 conjugate gradient relaxation of ions
 charge density and potential will be updated during run
 spin polarized calculation
 RMM-DIIS sequential band-by-band
 perform sub-space diagonalisation
    before iterative eigenvector-optimisation
 modified Broyden-mixing scheme, WC =      100.0
 initial mixing is a Kerker type mixing with AMIX =  0.4000 and BMIX =      1.0000
 Hartree-type preconditioning will be used
 using additional bands          120
 reciprocal scheme for non local part
 use partial core corrections
 calculate Harris-corrections to forces 
   (improved forces if not selfconsistent)
 use gradient corrections 
 use of overlap-Matrix (Vanderbilt PP)
 Gauss-broadening in eV      SIGMA  =   0.00


--------------------------------------------------------------------------------------------------------


  energy-cutoff  :      295.45
  volume of cell :    28011.39
      direct lattice vectors                 reciprocal lattice vectors
    30.370005334  0.000000000  0.000000000     0.032927225  0.000000000  0.000000000
     0.000000000 30.370005334  0.000000000     0.000000000  0.032927225  0.000000000
     0.000000000  0.000000000 30.370005334     0.000000000  0.000000000  0.032927225

  length of vectors
    30.370005334 30.370005334 30.370005334     0.032927225  0.032927225  0.032927225


 
 k-points in units of 2pi/SCALE and weight: Gamma-point only                        
   0.00000000  0.00000000  0.00000000       1.000
 
 k-points in reciprocal lattice and weights: Gamma-point only                        
   0.00000000  0.00000000  0.00000000       1.000
 
 position of ions in fractional coordinates (direct lattice) 
   0.47299993  0.42968684  0.41384422
   0.47231105  0.43021467  0.49999010
   0.55303985  0.45517307  0.41472844
   0.55334281  0.45560619  0.49984426
   0.49543450  0.49689938  0.45747614
   0.49580382  0.49717412  0.37445586
   0.42443500  0.49746577  0.41385241
   0.55364204  0.53798201  0.41534120
   0.47505553  0.56473585  0.41489555
   0.42476857  0.49669649  0.50002853
   0.55319057  0.53786046  0.50002957
   0.47552849  0.56510574  0.50006945
   0.47297428  0.42961892  0.58618503
   0.55296859  0.45523554  0.58513460
   0.49547952  0.49688830  0.54253425
   0.49578687  0.49716987  0.62555268
   0.42449841  0.49742927  0.58613212
   0.55360525  0.53810484  0.58473462
   0.47504552  0.56479519  0.58518800
   0.61229542  0.49659997  0.54422635
   0.61242236  0.49651717  0.45576520
   0.53352099  0.60742226  0.54441243
   0.53351406  0.60736291  0.45558135
   0.52992729  0.38907645  0.45869611
   0.52988578  0.38910695  0.54124029
   0.40497005  0.56458803  0.54128968
   0.40497097  0.56457030  0.45876825
   0.40116248  0.42955483  0.54525206
   0.40114641  0.42964136  0.45476120
   0.60879739  0.41481055  0.45898769
   0.60865332  0.41487432  0.54089781
   0.61057568  0.57861092  0.45938043
   0.61058206  0.57871399  0.54066878
   0.45511963  0.63080343  0.45905244
   0.45511522  0.63083881  0.54094095
   0.45153768  0.36481412  0.45918358
   0.45153398  0.36476250  0.54075305
   0.35605305  0.49839339  0.45936809
   0.35613788  0.49835256  0.54073176
   0.66662422  0.45573347  0.50011617
   0.66734853  0.53632248  0.50004458
   0.58957071  0.64613107  0.49995030
   0.51323406  0.67191739  0.49993677
   0.33414657  0.43118095  0.50004583
   0.38124361  0.36545730  0.49993178
 
 position of ions in cartesian coordinates  (Angst):
  14.36501029 13.04959156 12.56845126
  14.34408922 13.06562186 15.18470202
  16.79582321 13.82360870 12.59530503
  16.80502420 13.83676233 15.18027274
  15.04634849 15.09083668 13.89355267
  15.05756472 15.09918067 11.37222640
  12.89009327 15.10803813 12.56869989
  16.81411179 16.33851655 12.61391460
  14.42743896 17.15103091 12.60038016
  12.90022369 15.08467508 15.18586906
  16.80040059 16.33482503 15.18590083
  14.44180275 17.16226447 15.18711201
  14.36423135 13.04752887 17.80244247
  16.79365907 13.82550578 17.77054085
  15.04771575 15.09050024 16.47676811
  15.05704990 15.09905172 18.99803813
  12.89201892 15.10692943 17.80083575
  16.81299445 16.34224698 17.75839360
  14.42713495 17.15283303 17.77216278
  18.59541503 15.08174366 16.52815726
  18.59927033 15.07922895 13.84159152
  16.20303524 18.44741741 16.53380847
  16.20282478 18.44561478 13.83600792
  16.09389452 11.81625371 13.93060331
  16.09263401 11.81718023 16.43747064
  12.29894260 17.14654157 16.43897057
  12.29897062 17.14600291 13.93279430
  12.18330652 13.04558262 16.55930799
  12.18281871 13.04821032 13.81110020
  18.48917998 12.59779855 13.93945858
  18.48480468 12.59973518 16.42706936
  18.54318654 17.57241675 13.95138599
  18.54338027 17.57554697 16.42011387
  13.82198564 19.15750345 13.94142508
  13.82185172 19.15857809 16.42837969
  13.71320164 11.07940684 13.94540787
  13.71308946 11.07783922 16.42267313
  10.81333314 15.13620982 13.95101143
  10.81590926 15.13497004 16.42202629
  20.24538111 13.84062800 15.18853066
  20.26737847 16.28811661 15.18635654
  17.90526548 19.62300397 15.18349323
  15.58692107 20.40613470 15.18308237
  10.14803318 13.09496765 15.18639459
  11.57837043 11.09894001 15.18293078
 


--------------------------------------------------------------------------------------------------------


 use parallel FFT for wavefunctions z direction half grid
 k-point  1 :   0.0000 0.0000 0.0000  plane waves:  161623

 maximum and minimum number of plane-waves per node :     26946    26927

 maximum number of plane-waves:    161623
 maximum index in each direction: 
   IXMAX=   42   IYMAX=   42   IZMAX=   42
   IXMIN=  -42   IYMIN=  -42   IZMIN=    0

 WARNING: aliasing errors must be expected set NGX to 170 to avoid them
 WARNING: aliasing errors must be expected set NGY to 170 to avoid them
 WARNING: aliasing errors must be expected set NGZ to 170 to avoid them
 aliasing errors are usually negligible using standard VASP settings
 and one can safely disregard these warnings

 parallel 3D FFT for wavefunctions:
    minimum data exchange during FFTs selected (reduces bandwidth)
 parallel 3D FFT for charge:
    minimum data exchange during FFTs selected (reduces bandwidth)


 total amount of memory used by VASP on root node   246023. kBytes
========================================================================

   base      :      30000. kBytes
   nonl-proj :      23269. kBytes
   fftplans  :      31986. kBytes
   grid      :      81145. kBytes
   one-center:        124. kBytes
   wavefun   :      79499. kBytes
 
     INWAV:  cpu time    0.0000: real time    0.0003
 Broyden mixing: mesh for mixing (old mesh)
   NGX = 85   NGY = 85   NGZ = 85
  (NGX  =256   NGY  =256   NGZ  =256)
  gives a total of 614125 points

 initial charge density was supplied:
 charge density of overlapping atoms calculated
 number of electron     495.0000000 magnetization     135.0000000
 keeping initial charge density in first step


--------------------------------------------------------------------------------------------------------


 Maximum index for augmentation-charges          193 (set IRDMAX)


--------------------------------------------------------------------------------------------------------


 First call to EWALD:  gamma=   0.058
 Maximum number of real-space cells 3x 3x 3
 Maximum number of reciprocal cells 3x 3x 3

 FEWALD executed in parallel
    FEWALD:  cpu time    0.0100: real time    0.0100


----------------------------------------- Iteration    1(   1)  ---------------------------------------


    POTLOK:  cpu time    1.5766: real time    1.5865
    SETDIJ:  cpu time    0.0221: real time    0.0226
    EDDIAG:  cpu time    4.6678: real time    4.6735
  RMM-DIIS:  cpu time   40.3434: real time   40.4308
    ORTHCH:  cpu time    0.4780: real time    0.4783
       DOS:  cpu time    0.0002: real time    0.0002
    --------------------------------------------
      LOOP:  cpu time   47.0917: real time   47.1977

 eigenvalue-minimisations  :   736
 total energy-change (2. order) : 0.4531779E+04  (-0.6207578E+04)
 number of electron     495.0000000 magnetization     135.0000000
 augmentation part      495.0000000 magnetization     135.0000000

 Free energy of the ion-electron system (eV)
  ---------------------------------------------------
  alpha Z        PSCENC =        52.86918873
  Ewald energy   TEWEN  =    222361.45841301
  -Hartree energ DENC   =   -279275.25717742
  -exchange      EXHF   =         0.00000000
  -V(xc)+E(xc)   XCENC  =      2079.72269750
  PAW double counting   =     55224.77309112   -59980.31445855
  entropy T*S    EENTRO =        -0.00000000
  eigenvalues    EBANDS =      1476.42596643
  atomic energy  EATOM  =     62592.10130960
  Solvation  Ediel_sol  =         0.00000000
  ---------------------------------------------------
  free energy    TOTEN  =      4531.77903042 eV

  energy without entropy =     4531.77903042  energy(sigma->0) =     4531.77903042


--------------------------------------------------------------------------------------------------------




----------------------------------------- Iteration    1(   2)  ---------------------------------------


    EDDIAG:  cpu time    4.6884: real time    4.6931
  RMM-DIIS:  cpu time   40.6593: real time   40.7414
    ORTHCH:  cpu time    0.5321: real time    0.5324
       DOS:  cpu time    0.0002: real time    0.0002
    --------------------------------------------
      LOOP:  cpu time   45.8828: real time   45.9728

 eigenvalue-minimisations  :   736
 total energy-change (2. order) :-0.1474905E+04  (-0.1599926E+04)
 number of electron     495.0000000 magnetization     135.0000000
 augmentation part      495.0000000 magnetization     135.0000000

 Free energy of the ion-electron system (eV)
  ---------------------------------------------------
  alpha Z        PSCENC =        52.86918873
  Ewald energy   TEWEN  =    222361.45841301
  -Hartree energ DENC   =   -279275.25717742
  -exchange      EXHF   =         0.00000000
  -V(xc)+E(xc)   XCENC  =      2079.72269750
  PAW double counting   =     55224.77309112   -59980.31445855
  entropy T*S    EENTRO =         0.00000000
  eigenvalues    EBANDS =         1.52117723
  atomic energy  EATOM  =     62592.10130960
  Solvation  Ediel_sol  =         0.00000000
  ---------------------------------------------------
  free energy    TOTEN  =      3056.87424123 eV

  energy without entropy =     3056.87424123  energy(sigma->0) =     3056.87424123


--------------------------------------------------------------------------------------------------------




----------------------------------------- Iteration    1(   3)  ---------------------------------------


    EDDIAG:  cpu time    4.6919: real time    4.6976
  RMM-DIIS:  cpu time   40.6875: real time   40.7488
    ORTHCH:  cpu time    0.4564: real time    0.4568
       DOS:  cpu time    0.0005: real time    0.0005
    --------------------------------------------
      LOOP:  cpu time   45.8406: real time   46.0188

 eigenvalue-minimisations  :   736
 total energy-change (2. order) :-0.1110238E+04  (-0.1435135E+04)
 number of electron     495.0000000 magnetization     135.0000000
 augmentation part      495.0000000 magnetization     135.0000000

 Free energy of the ion-electron system (eV)
  ---------------------------------------------------
  alpha Z        PSCENC =        52.86918873
  Ewald energy   TEWEN  =    222361.45841301
  -Hartree energ DENC   =   -279275.25717742
  -exchange      EXHF   =         0.00000000
  -V(xc)+E(xc)   XCENC  =      2079.72269750
  PAW double counting   =     55224.77309112   -59980.31445855
  entropy T*S    EENTRO =        -0.00000175
  eigenvalues    EBANDS =     -1108.71720647
  atomic energy  EATOM  =     62592.10130960
  Solvation  Ediel_sol  =         0.00000000
  ---------------------------------------------------
  free energy    TOTEN  =      1946.63585577 eV

  energy without entropy =     1946.63585752  energy(sigma->0) =     1946.63585665


--------------------------------------------------------------------------------------------------------




----------------------------------------- Iteration    1(   4)  ---------------------------------------


    EDDIAG:  cpu time    4.6747: real time    4.7202
  RMM-DIIS:  cpu time   40.8296: real time   40.8689
    ORTHCH:  cpu time    0.4568: real time    0.4571
       DOS:  cpu time    0.0002: real time    0.0002
    --------------------------------------------
      LOOP:  cpu time   45.9652: real time   46.0849

 eigenvalue-minimisations  :   736
 total energy-change (2. order) :-0.1063756E+04  (-0.9710633E+03)
 number of electron     495.0000000 magnetization     135.0000000
 augmentation part      495.0000000 magnetization     135.0000000

 Free energy of the ion-electron system (eV)
  ---------------------------------------------------
  alpha Z        PSCENC =        52.86918873
  Ewald energy   TEWEN  =    222361.45841301
  -Hartree energ DENC   =   -279275.25717742
  -exchange      EXHF   =         0.00000000
  -V(xc)+E(xc)   XCENC  =      2079.72269750
  PAW double counting   =     55224.77309112   -59980.31445855
  entropy T*S    EENTRO =         0.00000000
  eigenvalues    EBANDS =     -2172.47364662
  atomic energy  EATOM  =     62592.10130960
  Solvation  Ediel_sol  =         0.00000000
  ---------------------------------------------------
  free energy    TOTEN  =       882.87941738 eV

  energy without entropy =      882.87941738  energy(sigma->0) =      882.87941738


--------------------------------------------------------------------------------------------------------




----------------------------------------- Iteration    1(   5)  ---------------------------------------


    EDDIAG:  cpu time    4.6981: real time    4.7095
  RMM-DIIS:  cpu time   40.8193: real time   40.9058
    ORTHCH:  cpu time    0.4559: real time    0.4559
       DOS:  cpu time    0.0002: real time    0.0002
    --------------------------------------------
      LOOP:  cpu time   45.9777: real time   46.0786

 eigenvalue-minimisations  :   736
 total energy-change (2. order) :-0.5403631E+03  (-0.4154039E+03)
 number of electron     495.0000000 magnetization     135.0000000
 augmentation part      495.0000000 magnetization     135.0000000

 Free energy of the ion-electron system (eV)
  ---------------------------------------------------
  alpha Z        PSCENC =        52.86918873
  Ewald energy   TEWEN  =    222361.45841301
  -Hartree energ DENC   =   -279275.25717742
  -exchange      EXHF   =         0.00000000
  -V(xc)+E(xc)   XCENC  =      2079.72269750
  PAW double counting   =     55224.77309112   -59980.31445855
  entropy T*S    EENTRO =         0.00000000
  eigenvalues    EBANDS =     -2712.83674265
  atomic energy  EATOM  =     62592.10130960
  Solvation  Ediel_sol  =         0.00000000
  ---------------------------------------------------
  free energy    TOTEN  =       342.51632135 eV

  energy without entropy =      342.51632135  energy(sigma->0) =      342.51632135


--------------------------------------------------------------------------------------------------------




----------------------------------------- Iteration    1(   6)  ---------------------------------------


    EDDIAG:  cpu time    4.6858: real time    4.6899
  RMM-DIIS:  cpu time   39.6222: real time   39.7127
    ORTHCH:  cpu time    0.4405: real time    0.7316
       DOS:  cpu time    0.0002: real time    0.0002
    --------------------------------------------
      LOOP:  cpu time   44.7523: real time   45.1406

 eigenvalue-minimisations  :   736
 total energy-change (2. order) :-0.2765503E+03  (-0.1904768E+03)
 number of electron     495.0000000 magnetization     135.0000000
 augmentation part      495.0000000 magnetization     135.0000000

 Free energy of the ion-electron system (eV)
  ---------------------------------------------------
  alpha Z        PSCENC =        52.86918873
  Ewald energy   TEWEN  =    222361.45841301
  -Hartree energ DENC   =   -279275.25717742
  -exchange      EXHF   =         0.00000000
  -V(xc)+E(xc)   XCENC  =      2079.72269750
  PAW double counting   =     55224.77309112   -59980.31445855
  entropy T*S    EENTRO =         0.00000000
  eigenvalues    EBANDS =     -2989.38705890
  atomic energy  EATOM  =     62592.10130960
  Solvation  Ediel_sol  =         0.00000000
  ---------------------------------------------------
  free energy    TOTEN  =        65.96600510 eV

  energy without entropy =       65.96600510  energy(sigma->0) =       65.96600510


--------------------------------------------------------------------------------------------------------




----------------------------------------- Iteration    1(   7)  ---------------------------------------


    EDDIAG:  cpu time    4.6668: real time    4.6949
  RMM-DIIS:  cpu time   40.8990: real time   40.9799
    ORTHCH:  cpu time    0.4779: real time    0.4780
       DOS:  cpu time    0.0002: real time    0.0002
    --------------------------------------------
      LOOP:  cpu time   46.0470: real time   46.1590

 eigenvalue-minimisations  :   736
 total energy-change (2. order) :-0.8069726E+02  (-0.7683349E+02)
 number of electron     495.0000000 magnetization     135.0000000
 augmentation part      495.0000000 magnetization     135.0000000

 Free energy of the ion-electron system (eV)
  ---------------------------------------------------
  alpha Z        PSCENC =        52.86918873
  Ewald energy   TEWEN  =    222361.45841301
  -Hartree energ DENC   =   -279275.25717742
  -exchange      EXHF   =         0.00000000
  -V(xc)+E(xc)   XCENC  =      2079.72269750
  PAW double counting   =     55224.77309112   -59980.31445855
  entropy T*S    EENTRO =        -0.00000000
  eigenvalues    EBANDS =     -3070.08431770
  atomic energy  EATOM  =     62592.10130960
  Solvation  Ediel_sol  =         0.00000000
  ---------------------------------------------------
  free energy    TOTEN  =       -14.73125371 eV

  energy without entropy =      -14.73125371  energy(sigma->0) =      -14.73125371


--------------------------------------------------------------------------------------------------------




----------------------------------------- Iteration    1(   8)  ---------------------------------------


    EDDIAG:  cpu time    4.7007: real time    4.7045
  RMM-DIIS:  cpu time   40.3654: real time   40.4210
    ORTHCH:  cpu time    0.4620: real time    0.4623
       DOS:  cpu time    0.0002: real time    0.0002
    --------------------------------------------
      LOOP:  cpu time   45.5338: real time   45.5962

 eigenvalue-minimisations  :   736
 total energy-change (2. order) :-0.3947537E+02  (-0.3114917E+02)
 number of electron     495.0000000 magnetization     135.0000000
 augmentation part      495.0000000 magnetization     135.0000000

 Free energy of the ion-electron system (eV)
  ---------------------------------------------------
  alpha Z        PSCENC =        52.86918873
  Ewald energy   TEWEN  =    222361.45841301
  -Hartree energ DENC   =   -279275.25717742
  -exchange      EXHF   =         0.00000000
  -V(xc)+E(xc)   XCENC  =      2079.72269750
  PAW double counting   =     55224.77309112   -59980.31445855
  entropy T*S    EENTRO =         0.00000000
  eigenvalues    EBANDS =     -3109.55968754
  atomic energy  EATOM  =     62592.10130960
  Solvation  Ediel_sol  =         0.00000000
  ---------------------------------------------------
  free energy    TOTEN  =       -54.20662355 eV

  energy without entropy =      -54.20662355  energy(sigma->0) =      -54.20662355


--------------------------------------------------------------------------------------------------------




----------------------------------------- Iteration    1(   9)  ---------------------------------------


    EDDIAG:  cpu time    4.6971: real time    4.7010
  RMM-DIIS:  cpu time   90.9657: real time   91.1254
    ORTHCH:  cpu time    0.4604: real time    0.4607
       DOS:  cpu time    0.0002: real time    0.0002
    --------------------------------------------
      LOOP:  cpu time   96.1280: real time   96.2934

 eigenvalue-minimisations  :  1698
 total energy-change (2. order) :-0.3572407E+02  (-0.3240625E+02)
 number of electron     495.0000000 magnetization     135.0000000
 augmentation part      495.0000000 magnetization     135.0000000

 Free energy of the ion-electron system (eV)
  ---------------------------------------------------
  alpha Z        PSCENC =        52.86918873
  Ewald energy   TEWEN  =    222361.45841301
  -Hartree energ DENC   =   -279275.25717742
  -exchange      EXHF   =         0.00000000
  -V(xc)+E(xc)   XCENC  =      2079.72269750
  PAW double counting   =     55224.77309112   -59980.31445855
  entropy T*S    EENTRO =        -0.00000000
  eigenvalues    EBANDS =     -3145.28375267
  atomic energy  EATOM  =     62592.10130960
  Solvation  Ediel_sol  =         0.00000000
  ---------------------------------------------------
  free energy    TOTEN  =       -89.93068867 eV

  energy without entropy =      -89.93068867  energy(sigma->0) =      -89.93068867


--------------------------------------------------------------------------------------------------------




----------------------------------------- Iteration    1(  10)  ---------------------------------------


    EDDIAG:  cpu time    4.6832: real time    4.6869
  RMM-DIIS:  cpu time   92.0564: real time   92.1976
    ORTHCH:  cpu time    0.4832: real time    0.4835
       DOS:  cpu time    0.0001: real time    0.0001
    --------------------------------------------
      LOOP:  cpu time   97.2273: real time   97.3755

 eigenvalue-minimisations  :  1719
 total energy-change (2. order) :-0.5378379E+01  (-0.3824253E+01)
 number of electron     495.0000000 magnetization     135.0000000
 augmentation part      495.0000000 magnetization     135.0000000

 Free energy of the ion-electron system (eV)
  ---------------------------------------------------
  alpha Z        PSCENC =        52.86918873
  Ewald energy   TEWEN  =    222361.45841301
  -Hartree energ DENC   =   -279275.25717742
  -exchange      EXHF   =         0.00000000
  -V(xc)+E(xc)   XCENC  =      2079.72269750
  PAW double counting   =     55224.77309112   -59980.31445855
  entropy T*S    EENTRO =         0.00000000
  eigenvalues    EBANDS =     -3150.66213155
  atomic energy  EATOM  =     62592.10130960
  Solvation  Ediel_sol  =         0.00000000
  ---------------------------------------------------
  free energy    TOTEN  =       -95.30906755 eV

  energy without entropy =      -95.30906755  energy(sigma->0) =      -95.30906755


--------------------------------------------------------------------------------------------------------




----------------------------------------- Iteration    1(  11)  ---------------------------------------


    EDDIAG:  cpu time    4.6769: real time    4.6813
  RMM-DIIS:  cpu time   89.5688: real time   90.2462
    ORTHCH:  cpu time    0.4513: real time    0.4518
       DOS:  cpu time    0.0001: real time    0.0001
    --------------------------------------------
      LOOP:  cpu time   94.7011: real time   95.3863

 eigenvalue-minimisations  :  1684
 total energy-change (2. order) :-0.3702403E+01  (-0.2083593E+01)
 number of electron     495.0000000 magnetization     135.0000000
 augmentation part      495.0000000 magnetization     135.0000000

 Free energy of the ion-electron system (eV)
  ---------------------------------------------------
  alpha Z        PSCENC =        52.86918873
  Ewald energy   TEWEN  =    222361.45841301
  -Hartree energ DENC   =   -279275.25717742
  -exchange      EXHF   =         0.00000000
  -V(xc)+E(xc)   XCENC  =      2079.72269750
  PAW double counting   =     55224.77309112   -59980.31445855
  entropy T*S    EENTRO =         0.00000000
  eigenvalues    EBANDS =     -3154.36453415
  atomic energy  EATOM  =     62592.10130960
  Solvation  Ediel_sol  =         0.00000000
  ---------------------------------------------------
  free energy    TOTEN  =       -99.01147015 eV

  energy without entropy =      -99.01147015  energy(sigma->0) =      -99.01147015


--------------------------------------------------------------------------------------------------------




----------------------------------------- Iteration    1(  12)  ---------------------------------------


    EDDIAG:  cpu time    4.6862: real time    4.6906
  RMM-DIIS:  cpu time   86.5498: real time   86.7291
    ORTHCH:  cpu time    0.4766: real time    0.4767
       DOS:  cpu time    0.0002: real time    0.0002
    CHARGE:  cpu time    1.7907: real time    1.7918
    MIXING:  cpu time    0.0293: real time    0.0293
    --------------------------------------------
      LOOP:  cpu time   93.5366: real time   93.8418

 eigenvalue-minimisations  :  1637
 total energy-change (2. order) :-0.6370299E+00  (-0.2663185E+00)
 number of electron     495.0002168 magnetization     128.0386469
 augmentation part      290.3972293 magnetization     122.1023220

 Broyden mixing:
  rms(total) = 0.11959E+02    rms(broyden)= 0.11957E+02
  rms(prec ) = 0.12039E+02
  weight for this iteration     100.00

 Free energy of the ion-electron system (eV)
  ---------------------------------------------------
  alpha Z        PSCENC =        52.86918873
  Ewald energy   TEWEN  =    222361.45841301
  -Hartree energ DENC   =   -279275.25717742
  -exchange      EXHF   =         0.00000000
  -V(xc)+E(xc)   XCENC  =      2079.72269750
  PAW double counting   =     55224.77309112   -59980.31445855
  entropy T*S    EENTRO =         0.00000000
  eigenvalues    EBANDS =     -3155.00156404
  atomic energy  EATOM  =     62592.10130960
  Solvation  Ediel_sol  =         0.00000000
  ---------------------------------------------------
  free energy    TOTEN  =       -99.64850004 eV

  energy without entropy =      -99.64850004  energy(sigma->0) =      -99.64850004


--------------------------------------------------------------------------------------------------------




----------------------------------------- Iteration    1(  13)  ---------------------------------------


    POTLOK:  cpu time    1.5599: real time    1.5607
    SETDIJ:  cpu time    0.0226: real time    0.0230
    EDDIAG:  cpu time    4.6777: real time    4.6849
  RMM-DIIS:  cpu time   79.0194: real time   79.1227
    ORTHCH:  cpu time    0.4814: real time    0.4815
       DOS:  cpu time    0.0002: real time    0.0002
    CHARGE:  cpu time    1.7702: real time    1.7715
    MIXING:  cpu time    0.0329: real time    0.0329
    --------------------------------------------
      LOOP:  cpu time   87.5675: real time   87.6834

 eigenvalue-minimisations  :  1473
 total energy-change (2. order) : 0.2415160E+03  (-0.1593389E+03)
 number of electron     495.0002621 magnetization     122.7249175
 augmentation part      341.9930263 magnetization      88.9288101

 Broyden mixing:
  rms(total) = 0.60897E+01    rms(broyden)= 0.60870E+01
  rms(prec ) = 0.62196E+01
  weight for this iteration     100.00

 eigenvalues of (default mixing * dielectric matrix)
  average eigenvalue GAMMA=   0.9228
  0.9228

 Free energy of the ion-electron system (eV)
  ---------------------------------------------------
  alpha Z        PSCENC =        52.86918873
  Ewald energy   TEWEN  =    222361.45841301
  -Hartree energ DENC   =   -277915.41538335
  -exchange      EXHF   =         0.00000000
  -V(xc)+E(xc)   XCENC  =      2216.44252697
  PAW double counting   =     55385.35414540   -59888.32333993
  entropy T*S    EENTRO =         0.00000000
  eigenvalues    EBANDS =     -4662.61933519
  atomic energy  EATOM  =     62592.10130960
  Solvation  Ediel_sol  =         0.00000000
  ---------------------------------------------------
  free energy    TOTEN  =       141.86752524 eV

  energy without entropy =      141.86752524  energy(sigma->0) =      141.86752524


--------------------------------------------------------------------------------------------------------




----------------------------------------- Iteration    1(  14)  ---------------------------------------


    POTLOK:  cpu time    1.5552: real time    1.5570
    SETDIJ:  cpu time    0.0231: real time    0.0236
    EDDIAG:  cpu time    4.7191: real time    4.7258
  RMM-DIIS:  cpu time   78.4880: real time   79.0346
    ORTHCH:  cpu time    0.4619: real time    0.4622
       DOS:  cpu time    0.0002: real time    0.0002
    CHARGE:  cpu time    1.7790: real time    1.7801
    MIXING:  cpu time    0.0357: real time    0.0357
    --------------------------------------------
      LOOP:  cpu time   87.0659: real time   87.6411

 eigenvalue-minimisations  :  1476
 total energy-change (2. order) : 0.6071091E+02  (-0.4177217E+02)
 number of electron     495.0002402 magnetization     115.2881076
 augmentation part      316.9451785 magnetization      75.2508289

 Broyden mixing:
  rms(total) = 0.30087E+01    rms(broyden)= 0.30078E+01
  rms(prec ) = 0.30260E+01
  weight for this iteration     100.00

 eigenvalues of (default mixing * dielectric matrix)
  average eigenvalue GAMMA=   0.9216
  1.1477  0.6955

 Free energy of the ion-electron system (eV)
  ---------------------------------------------------
  alpha Z        PSCENC =        52.86918873
  Ewald energy   TEWEN  =    222361.45841301
  -Hartree energ DENC   =   -279089.86326111
  -exchange      EXHF   =         0.00000000
  -V(xc)+E(xc)   XCENC  =      2258.63057757
  PAW double counting   =     57165.73093282   -62054.38453421
  entropy T*S    EENTRO =         0.00000000
  eigenvalues    EBANDS =     -3083.96419298
  atomic energy  EATOM  =     62592.10130960
  Solvation  Ediel_sol  =         0.00000000
  ---------------------------------------------------
  free energy    TOTEN  =       202.57843344 eV

  energy without entropy =      202.57843344  energy(sigma->0) =      202.57843344


--------------------------------------------------------------------------------------------------------




----------------------------------------- Iteration    1(  15)  ---------------------------------------


    POTLOK:  cpu time    1.5596: real time    1.5604
    SETDIJ:  cpu time    0.0222: real time    0.0226
    EDDIAG:  cpu time    4.7012: real time    4.7049
  RMM-DIIS:  cpu time   85.0729: real time   85.2191
    ORTHCH:  cpu time    0.4481: real time    0.4493
       DOS:  cpu time    0.0002: real time    0.0002
    CHARGE:  cpu time    1.7806: real time    1.7816
    MIXING:  cpu time    0.0382: real time    0.0382
    --------------------------------------------
      LOOP:  cpu time   93.6264: real time   93.7824

 eigenvalue-minimisations  :  1579
 total energy-change (2. order) : 0.1479442E+02  (-0.4489757E+01)
 number of electron     495.0002416 magnetization     104.7449759
 augmentation part      317.2648342 magnetization      63.5187297

 Broyden mixing:
  rms(total) = 0.23026E+01    rms(broyden)= 0.23025E+01
  rms(prec ) = 0.23086E+01
  weight for this iteration     100.00

 eigenvalues of (default mixing * dielectric matrix)
  average eigenvalue GAMMA=   1.0733
  0.7027  1.0901  1.4271

 Free energy of the ion-electron system (eV)
  ---------------------------------------------------
  alpha Z        PSCENC =        52.86918873
  Ewald energy   TEWEN  =    222361.45841301
  -Hartree energ DENC   =   -279248.18409646
  -exchange      EXHF   =         0.00000000
  -V(xc)+E(xc)   XCENC  =      2267.71900440
  PAW double counting   =     57978.30885923   -62876.20686922
  entropy T*S    EENTRO =         0.00000000
  eigenvalues    EBANDS =     -2910.69295255
  atomic energy  EATOM  =     62592.10130960
  Solvation  Ediel_sol  =         0.00000000
  ---------------------------------------------------
  free energy    TOTEN  =       217.37285674 eV

  energy without entropy =      217.37285674  energy(sigma->0) =      217.37285674


--------------------------------------------------------------------------------------------------------




----------------------------------------- Iteration    1(  16)  ---------------------------------------


    POTLOK:  cpu time    1.5667: real time    1.5676
    SETDIJ:  cpu time    0.0233: real time    0.0237
    EDDIAG:  cpu time    4.6800: real time    4.6920
  RMM-DIIS:  cpu time   79.0214: real time   79.1553
    ORTHCH:  cpu time    0.4665: real time    0.4666
       DOS:  cpu time    0.0002: real time    0.0002
    CHARGE:  cpu time    1.7819: real time    1.7834
    MIXING:  cpu time    0.0396: real time    0.0396
    --------------------------------------------
      LOOP:  cpu time   87.5830: real time   87.7345

 eigenvalue-minimisations  :  1478
 total energy-change (2. order) :-0.5609133E+02  (-0.2648658E+01)
 number of electron     495.0002399 magnetization      93.8744603
 augmentation part      318.8173633 magnetization      57.6716170

 Broyden mixing:
  rms(total) = 0.20036E+01    rms(broyden)= 0.20032E+01
  rms(prec ) = 0.20271E+01
  weight for this iteration     100.00

 eigenvalues of (default mixing * dielectric matrix)
  average eigenvalue GAMMA=   1.1731
  2.3400  1.1552  0.6914  0.5057

 Free energy of the ion-electron system (eV)
  ---------------------------------------------------
  alpha Z        PSCENC =        52.86918873
  Ewald energy   TEWEN  =    222361.45841301
  -Hartree energ DENC   =   -279254.23667700
  -exchange      EXHF   =         0.00000000
  -V(xc)+E(xc)   XCENC  =      2222.71300106
  PAW double counting   =     58497.22000520   -63365.57149121
  entropy T*S    EENTRO =         0.00000000
  eigenvalues    EBANDS =     -2945.27221892
  atomic energy  EATOM  =     62592.10130960
  Solvation  Ediel_sol  =         0.00000000
  ---------------------------------------------------
  free energy    TOTEN  =       161.28153048 eV

  energy without entropy =      161.28153048  energy(sigma->0) =      161.28153048


--------------------------------------------------------------------------------------------------------




----------------------------------------- Iteration    1(  17)  ---------------------------------------


    POTLOK:  cpu time    1.5689: real time    1.5708
    SETDIJ:  cpu time    0.0232: real time    0.0236
    EDDIAG:  cpu time    4.6984: real time    4.7027
  RMM-DIIS:  cpu time   78.7559: real time   79.2483
    ORTHCH:  cpu time    0.4480: real time    0.4483
       DOS:  cpu time    0.0002: real time    0.0002
    CHARGE:  cpu time    1.7849: real time    1.7861
    MIXING:  cpu time    0.0437: real time    0.0437
    --------------------------------------------
      LOOP:  cpu time   87.3267: real time   87.8298

 eigenvalue-minimisations  :  1479
 total energy-change (2. order) :-0.4248536E+02  (-0.2622855E+01)
 number of electron     495.0002429 magnetization      82.9893206
 augmentation part      319.6319084 magnetization      51.2593525

 Broyden mixing:
  rms(total) = 0.13557E+01    rms(broyden)= 0.13553E+01
  rms(prec ) = 0.13649E+01
  weight for this iteration     100.00

 eigenvalues of (default mixing * dielectric matrix)
  average eigenvalue GAMMA=   1.2597
  3.0016  1.3384  0.7386  0.7386  0.4813

 Free energy of the ion-electron system (eV)
  ---------------------------------------------------
  alpha Z        PSCENC =        52.86918873
  Ewald energy   TEWEN  =    222361.45841301
  -Hartree energ DENC   =   -279275.47284979
  -exchange      EXHF   =         0.00000000
  -V(xc)+E(xc)   XCENC  =      2191.31480090
  PAW double counting   =     58890.18146537   -63747.02423708
  entropy T*S    EENTRO =         0.00000000
  eigenvalues    EBANDS =     -2946.63192502
  atomic energy  EATOM  =     62592.10130960
  Solvation  Ediel_sol  =         0.00000000
  ---------------------------------------------------
  free energy    TOTEN  =       118.79616573 eV

  energy without entropy =      118.79616573  energy(sigma->0) =      118.79616573


--------------------------------------------------------------------------------------------------------




----------------------------------------- Iteration    1(  18)  ---------------------------------------


    POTLOK:  cpu time    1.5729: real time    1.5746
    SETDIJ:  cpu time    0.0239: real time    0.0240
    EDDIAG:  cpu time    4.6941: real time    4.6981
  RMM-DIIS:  cpu time   78.6830: real time   78.8269
    ORTHCH:  cpu time    0.4529: real time    0.4547
       DOS:  cpu time    0.0002: real time    0.0002
    CHARGE:  cpu time    1.7862: real time    1.7876
    MIXING:  cpu time    0.0470: real time    0.0470
    --------------------------------------------
      LOOP:  cpu time   87.2636: real time   87.4192

 eigenvalue-minimisations  :  1478
 total energy-change (2. order) :-0.5776152E+02  (-0.3284710E+01)
 number of electron     495.0002414 magnetization      72.4070987
 augmentation part      317.9565696 magnetization      45.4134814

 Broyden mixing:
  rms(total) = 0.10656E+01    rms(broyden)= 0.10651E+01
  rms(prec ) = 0.10795E+01
  weight for this iteration     100.00

 eigenvalues of (default mixing * dielectric matrix)
  average eigenvalue GAMMA=   1.3734
  3.9521  1.5599  0.9196  0.7064  0.6508  0.4514

 Free energy of the ion-electron system (eV)
  ---------------------------------------------------
  alpha Z        PSCENC =        52.86918873
  Ewald energy   TEWEN  =    222361.45841301
  -Hartree energ DENC   =   -279310.55082028
  -exchange      EXHF   =         0.00000000
  -V(xc)+E(xc)   XCENC  =      2150.09307834
  PAW double counting   =     58960.48981589   -63820.28170372
  entropy T*S    EENTRO =         0.00000000
  eigenvalues    EBANDS =     -2925.14463550
  atomic energy  EATOM  =     62592.10130960
  Solvation  Ediel_sol  =         0.00000000
  ---------------------------------------------------
  free energy    TOTEN  =        61.03464607 eV

  energy without entropy =       61.03464607  energy(sigma->0) =       61.03464607


--------------------------------------------------------------------------------------------------------




----------------------------------------- Iteration    1(  19)  ---------------------------------------


    POTLOK:  cpu time    1.5637: real time    1.5650
    SETDIJ:  cpu time    0.0227: real time    0.0232
    EDDIAG:  cpu time    4.6861: real time    4.6902
  RMM-DIIS:  cpu time   79.3256: real time   79.4770
    ORTHCH:  cpu time    0.4503: real time    0.4520
       DOS:  cpu time    0.0002: real time    0.0002
    CHARGE:  cpu time    1.7667: real time    1.7681
    MIXING:  cpu time    0.0524: real time    0.0524
    --------------------------------------------
      LOOP:  cpu time   87.8712: real time   88.0331

 eigenvalue-minimisations  :  1478
 total energy-change (2. order) :-0.5799969E+02  (-0.4022076E+01)
 number of electron     495.0002402 magnetization      61.5590048
 augmentation part      316.6040103 magnetization      40.1970391

 Broyden mixing:
  rms(total) = 0.85126E+00    rms(broyden)= 0.85041E+00
  rms(prec ) = 0.86223E+00
  weight for this iteration     100.00

 eigenvalues of (default mixing * dielectric matrix)
  average eigenvalue GAMMA=   1.4574
  4.9623  1.7664  1.1293  0.6903  0.6903  0.5212  0.4423

 Free energy of the ion-electron system (eV)
  ---------------------------------------------------
  alpha Z        PSCENC =        52.86918873
  Ewald energy   TEWEN  =    222361.45841301
  -Hartree energ DENC   =   -279334.18492884
  -exchange      EXHF   =         0.00000000
  -V(xc)+E(xc)   XCENC  =      2108.06770341
  PAW double counting   =     58918.38202519   -63777.58484418
  entropy T*S    EENTRO =         0.00000000
  eigenvalues    EBANDS =     -2918.07390810
  atomic energy  EATOM  =     62592.10130960
  Solvation  Ediel_sol  =         0.00000000
  ---------------------------------------------------
  free energy    TOTEN  =         3.03495883 eV

  energy without entropy =        3.03495883  energy(sigma->0) =        3.03495883


--------------------------------------------------------------------------------------------------------




----------------------------------------- Iteration    1(  20)  ---------------------------------------


    POTLOK:  cpu time    1.5614: real time    1.5703
    SETDIJ:  cpu time    0.0233: real time    0.0237
    EDDIAG:  cpu time    4.6859: real time    4.6904
  RMM-DIIS:  cpu time   78.5862: real time   78.7237
    ORTHCH:  cpu time    0.4587: real time    0.4591
       DOS:  cpu time    0.0001: real time    0.0001
    CHARGE:  cpu time    1.7882: real time    1.7892
    MIXING:  cpu time    0.0554: real time    0.0554
    --------------------------------------------
      LOOP:  cpu time   87.1627: real time   87.3180

 eigenvalue-minimisations  :  1476
 total energy-change (2. order) :-0.4226174E+02  (-0.3800913E+01)
 number of electron     495.0002387 magnetization      50.7366162
 augmentation part      316.2607503 magnetization      34.5327417

 Broyden mixing:
  rms(total) = 0.69281E+00    rms(broyden)= 0.69188E+00
  rms(prec ) = 0.70413E+00
  weight for this iteration     100.00

 eigenvalues of (default mixing * dielectric matrix)
  average eigenvalue GAMMA=   1.5389
  5.9464  2.1905  1.1755  0.7496  0.7496  0.6206  0.4752  0.4040

 Free energy of the ion-electron system (eV)
  ---------------------------------------------------
  alpha Z        PSCENC =        52.86918873
  Ewald energy   TEWEN  =    222361.45841301
  -Hartree energ DENC   =   -279322.55535455
  -exchange      EXHF   =         0.00000000
  -V(xc)+E(xc)   XCENC  =      2077.24436823
  PAW double counting   =     58844.77250068   -63695.01981396
  entropy T*S    EENTRO =         0.00000000
  eigenvalues    EBANDS =     -2950.09739502
  atomic energy  EATOM  =     62592.10130960
  Solvation  Ediel_sol  =         0.00000000
  ---------------------------------------------------
  free energy    TOTEN  =       -39.22678327 eV

  energy without entropy =      -39.22678327  energy(sigma->0) =      -39.22678327


--------------------------------------------------------------------------------------------------------




----------------------------------------- Iteration    1(  21)  ---------------------------------------


    POTLOK:  cpu time    1.5537: real time    1.5550
    SETDIJ:  cpu time    0.0224: real time    0.0228
    EDDIAG:  cpu time    4.6463: real time    4.6933
  RMM-DIIS:  cpu time   77.8037: real time   78.4718
    ORTHCH:  cpu time    0.4480: real time    0.4487
       DOS:  cpu time    0.0002: real time    0.0002
    CHARGE:  cpu time    1.7826: real time    1.7838
    MIXING:  cpu time    0.0622: real time    0.0622
    --------------------------------------------
      LOOP:  cpu time   86.3226: real time   87.0439

 eigenvalue-minimisations  :  1474
 total energy-change (2. order) :-0.3504455E+02  (-0.3622071E+01)
 number of electron     495.0002398 magnetization      42.5138052
 augmentation part      316.4249270 magnetization      31.7895265

 Broyden mixing:
  rms(total) = 0.51332E+00    rms(broyden)= 0.51241E+00
  rms(prec ) = 0.51965E+00
  weight for this iteration     100.00

 eigenvalues of (default mixing * dielectric matrix)
  average eigenvalue GAMMA=   1.6291
  7.1972  2.5271  1.1196  0.8540  0.8540  0.6710  0.5148  0.5148  0.4097

 Free energy of the ion-electron system (eV)
  ---------------------------------------------------
  alpha Z        PSCENC =        52.86918873
  Ewald energy   TEWEN  =    222361.45841301
  -Hartree energ DENC   =   -279300.43013129
  -exchange      EXHF   =         0.00000000
  -V(xc)+E(xc)   XCENC  =      2049.92480762
  PAW double counting   =     58727.13966981   -63565.18290796
  entropy T*S    EENTRO =         0.00000000
  eigenvalues    EBANDS =     -2992.15168638
  atomic energy  EATOM  =     62592.10130960
  Solvation  Ediel_sol  =         0.00000000
  ---------------------------------------------------
  free energy    TOTEN  =       -74.27133684 eV

  energy without entropy =      -74.27133684  energy(sigma->0) =      -74.27133684


--------------------------------------------------------------------------------------------------------




----------------------------------------- Iteration    1(  22)  ---------------------------------------


    POTLOK:  cpu time    1.5713: real time    1.5726
    SETDIJ:  cpu time    0.0230: real time    0.0235
    EDDIAG:  cpu time    4.6881: real time    4.6941
  RMM-DIIS:  cpu time   78.1181: real time   78.3000
    ORTHCH:  cpu time    0.4585: real time    0.4589
       DOS:  cpu time    0.0001: real time    0.0001
    CHARGE:  cpu time    1.7883: real time    1.7897
    MIXING:  cpu time    0.0688: real time    0.0689
    --------------------------------------------
      LOOP:  cpu time   86.7199: real time   86.9140

 eigenvalue-minimisations  :  1474
 total energy-change (2. order) :-0.2096808E+02  (-0.2332606E+01)
 number of electron     495.0002398 magnetization      37.3880219
 augmentation part      316.8053119 magnetization      30.4024353

 Broyden mixing:
  rms(total) = 0.40182E+00    rms(broyden)= 0.40135E+00
  rms(prec ) = 0.40642E+00
  weight for this iteration     100.00

 eigenvalues of (default mixing * dielectric matrix)
  average eigenvalue GAMMA=   1.6817
  8.1622  2.8284  1.1093  1.1093  0.8052  0.8052  0.5678  0.5678  0.4258  0.4363

 Free energy of the ion-electron system (eV)
  ---------------------------------------------------
  alpha Z        PSCENC =        52.86918873
  Ewald energy   TEWEN  =    222361.45841301
  -Hartree energ DENC   =   -279267.76468286
  -exchange      EXHF   =         0.00000000
  -V(xc)+E(xc)   XCENC  =      2033.26357909
  PAW double counting   =     58638.30634618   -63467.72759301
  entropy T*S    EENTRO =         0.00000000
  eigenvalues    EBANDS =     -3037.74597538
  atomic energy  EATOM  =     62592.10130960
  Solvation  Ediel_sol  =         0.00000000
  ---------------------------------------------------
  free energy    TOTEN  =       -95.23941463 eV

  energy without entropy =      -95.23941463  energy(sigma->0) =      -95.23941463


--------------------------------------------------------------------------------------------------------




----------------------------------------- Iteration    1(  23)  ---------------------------------------


    POTLOK:  cpu time    1.5623: real time    1.5631
    SETDIJ:  cpu time    0.0227: real time    0.0232
    EDDIAG:  cpu time    4.6894: real time    4.6940
  RMM-DIIS:  cpu time   78.6024: real time   78.7212
    ORTHCH:  cpu time    0.4522: real time    0.4528
       DOS:  cpu time    0.0002: real time    0.0002
    CHARGE:  cpu time    1.7891: real time    1.7904
    MIXING:  cpu time    0.0745: real time    0.0745
    --------------------------------------------
      LOOP:  cpu time   87.1972: real time   87.3328

 eigenvalue-minimisations  :  1475
 total energy-change (2. order) :-0.1065648E+02  (-0.8964439E+00)
 number of electron     495.0002408 magnetization      32.4040522
 augmentation part      316.8115391 magnetization      28.2847444

 Broyden mixing:
  rms(total) = 0.33610E+00    rms(broyden)= 0.33552E+00
  rms(prec ) = 0.34243E+00
  weight for this iteration     100.00

 eigenvalues of (default mixing * dielectric matrix)
  average eigenvalue GAMMA=   1.7043
  9.0899  3.0420  1.1399  1.1399  0.9163  0.6810  0.6810  0.6844  0.4865  0.4865
  0.3997

 Free energy of the ion-electron system (eV)
  ---------------------------------------------------
  alpha Z        PSCENC =        52.86918873
  Ewald energy   TEWEN  =    222361.45841301
  -Hartree energ DENC   =   -279239.24506104
  -exchange      EXHF   =         0.00000000
  -V(xc)+E(xc)   XCENC  =      2024.43195175
  PAW double counting   =     58558.23830286   -63384.94483924
  entropy T*S    EENTRO =         0.00000000
  eigenvalues    EBANDS =     -3070.80516067
  atomic energy  EATOM  =     62592.10130960
  Solvation  Ediel_sol  =         0.00000000
  ---------------------------------------------------
  free energy    TOTEN  =      -105.89589499 eV

  energy without entropy =     -105.89589499  energy(sigma->0) =     -105.89589499


--------------------------------------------------------------------------------------------------------




----------------------------------------- Iteration    1(  24)  ---------------------------------------


    POTLOK:  cpu time    1.5663: real time    1.5672
    SETDIJ:  cpu time    0.0225: real time    0.0229
    EDDIAG:  cpu time    4.6841: real time    4.6887
  RMM-DIIS:  cpu time   77.8718: real time   78.3398
    ORTHCH:  cpu time    0.4631: real time    0.4632
       DOS:  cpu time    0.0002: real time    0.0001
    CHARGE:  cpu time    1.7802: real time    1.7827
    MIXING:  cpu time    0.0817: real time    0.0817
    --------------------------------------------
      LOOP:  cpu time   86.4732: real time   86.9523

 eigenvalue-minimisations  :  1474
 total energy-change (2. order) :-0.6790156E+01  (-0.3554080E+00)
 number of electron     495.0002403 magnetization      27.7468585
 augmentation part      316.8696323 magnetization      25.9109011

 Broyden mixing:
  rms(total) = 0.29542E+00    rms(broyden)= 0.29479E+00
  rms(prec ) = 0.30234E+00
  weight for this iteration     100.00

 eigenvalues of (default mixing * dielectric matrix)
  average eigenvalue GAMMA=   1.6965
  9.7417  3.0931  1.2066  1.2066  1.1878  0.7015  0.7015  0.6580  0.5028  0.5028
  0.4009  0.4543

 Free energy of the ion-electron system (eV)
  ---------------------------------------------------
  alpha Z        PSCENC =        52.86918873
  Ewald energy   TEWEN  =    222361.45841301
  -Hartree energ DENC   =   -279216.38085310
  -exchange      EXHF   =         0.00000000
  -V(xc)+E(xc)   XCENC  =      2018.36145529
  PAW double counting   =     58508.24960475   -63335.69745927
  entropy T*S    EENTRO =         0.00000000
  eigenvalues    EBANDS =     -3093.64770956
  atomic energy  EATOM  =     62592.10130960
  Solvation  Ediel_sol  =         0.00000000
  ---------------------------------------------------
  free energy    TOTEN  =      -112.68605054 eV

  energy without entropy =     -112.68605054  energy(sigma->0) =     -112.68605054


--------------------------------------------------------------------------------------------------------




----------------------------------------- Iteration    1(  25)  ---------------------------------------


    POTLOK:  cpu time    1.5692: real time    1.5706
    SETDIJ:  cpu time    0.0225: real time    0.0229
    EDDIAG:  cpu time    4.6983: real time    4.7016
  RMM-DIIS:  cpu time   78.8441: real time   78.9929
    ORTHCH:  cpu time    0.4537: real time    0.4538
       DOS:  cpu time    0.0002: real time    0.0002
    CHARGE:  cpu time    1.7793: real time    1.7804
    MIXING:  cpu time    0.0891: real time    0.0906
    --------------------------------------------
      LOOP:  cpu time   87.4599: real time   87.6191

 eigenvalue-minimisations  :  1480
 total energy-change (2. order) :-0.4256983E+01  (-0.1629756E+00)
 number of electron     495.0002404 magnetization      23.8185440
 augmentation part      316.7701310 magnetization      22.4500230

 Broyden mixing:
  rms(total) = 0.22741E+00    rms(broyden)= 0.22734E+00
  rms(prec ) = 0.23139E+00
  weight for this iteration     100.00

 eigenvalues of (default mixing * dielectric matrix)
  average eigenvalue GAMMA=   1.7303
 10.3779  3.3264  1.4534  1.4534  0.9902  0.9902  0.7238  0.7238  0.5488  0.5488
  0.5185  0.3986  0.4405

 Free energy of the ion-electron system (eV)
  ---------------------------------------------------
  alpha Z        PSCENC =        52.86918873
  Ewald energy   TEWEN  =    222361.45841301
  -Hartree energ DENC   =   -279197.11584751
  -exchange      EXHF   =         0.00000000
  -V(xc)+E(xc)   XCENC  =      2014.51202204
  PAW double counting   =     58485.18547239   -63315.44166387
  entropy T*S    EENTRO =        -0.00000000
  eigenvalues    EBANDS =     -3110.51192795
  atomic energy  EATOM  =     62592.10130960
  Solvation  Ediel_sol  =         0.00000000
  ---------------------------------------------------
  free energy    TOTEN  =      -116.94303354 eV

  energy without entropy =     -116.94303354  energy(sigma->0) =     -116.94303354


--------------------------------------------------------------------------------------------------------




----------------------------------------- Iteration    1(  26)  ---------------------------------------


    POTLOK:  cpu time    1.5600: real time    1.5618
    SETDIJ:  cpu time    0.0226: real time    0.0230
    EDDIAG:  cpu time    4.6869: real time    4.6917
  RMM-DIIS:  cpu time   78.4899: real time   78.6148
    ORTHCH:  cpu time    0.4548: real time    0.4552
       DOS:  cpu time    0.0002: real time    0.0002
    CHARGE:  cpu time    1.7781: real time    1.7791
    MIXING:  cpu time    0.0957: real time    0.0958
    --------------------------------------------
      LOOP:  cpu time   87.0914: real time   87.2262

 eigenvalue-minimisations  :  1473
 total energy-change (2. order) :-0.4339035E+01  (-0.8409652E-01)
 number of electron     495.0002402 magnetization      20.1111234
 augmentation part      316.8392909 magnetization      19.0223349

 Broyden mixing:
  rms(total) = 0.17940E+00    rms(broyden)= 0.17938E+00
  rms(prec ) = 0.18202E+00
  weight for this iteration     100.00

 eigenvalues of (default mixing * dielectric matrix)
  average eigenvalue GAMMA=   1.7529
 10.9364  3.6409  1.9267  1.1991  1.1437  1.1437  0.7241  0.7241  0.6186  0.6186
  0.5162  0.5162  0.4011  0.4312

 Free energy of the ion-electron system (eV)
  ---------------------------------------------------
  alpha Z        PSCENC =        52.86918873
  Ewald energy   TEWEN  =    222361.45841301
  -Hartree energ DENC   =   -279153.34586145
  -exchange      EXHF   =         0.00000000
  -V(xc)+E(xc)   XCENC  =      2010.09130152
  PAW double counting   =     58428.85161726   -63260.09237622
  entropy T*S    EENTRO =         0.00000000
  eigenvalues    EBANDS =     -3153.21566113
  atomic energy  EATOM  =     62592.10130960
  Solvation  Ediel_sol  =         0.00000000
  ---------------------------------------------------
  free energy    TOTEN  =      -121.28206868 eV

  energy without entropy =     -121.28206868  energy(sigma->0) =     -121.28206868


--------------------------------------------------------------------------------------------------------




----------------------------------------- Iteration    1(  27)  ---------------------------------------


    POTLOK:  cpu time    1.5685: real time    1.5695
    SETDIJ:  cpu time    0.0224: real time    0.0229
    EDDIAG:  cpu time    4.6870: real time    4.6936
  RMM-DIIS:  cpu time   78.6191: real time   78.7532
    ORTHCH:  cpu time    0.4533: real time    0.4535
       DOS:  cpu time    0.0002: real time    0.0002
    CHARGE:  cpu time    1.7801: real time    1.7820
    MIXING:  cpu time    0.1017: real time    0.1017
    --------------------------------------------
      LOOP:  cpu time   87.2358: real time   87.3825

 eigenvalue-minimisations  :  1475
 total energy-change (2. order) :-0.3555198E+01  (-0.4312038E-01)
 number of electron     495.0002402 magnetization      16.8269491
 augmentation part      316.8456227 magnetization      15.8294050

 Broyden mixing:
  rms(total) = 0.14533E+00    rms(broyden)= 0.14531E+00
  rms(prec ) = 0.14791E+00
  weight for this iteration     100.00

 eigenvalues of (default mixing * dielectric matrix)
  average eigenvalue GAMMA=   1.7802
 11.3889  4.0063  2.2441  1.3398  1.3398  1.0073  0.8008  0.8008  0.7466  0.6121
  0.6121  0.4890  0.4890  0.3988  0.4274

 Free energy of the ion-electron system (eV)
  ---------------------------------------------------
  alpha Z        PSCENC =        52.86918873
  Ewald energy   TEWEN  =    222361.45841301
  -Hartree energ DENC   =   -279118.56701644
  -exchange      EXHF   =         0.00000000
  -V(xc)+E(xc)   XCENC  =      2006.44956615
  PAW double counting   =     58402.79753152   -63235.52079343
  entropy T*S    EENTRO =         0.00000000
  eigenvalues    EBANDS =     -3186.42546606
  atomic energy  EATOM  =     62592.10130960
  Solvation  Ediel_sol  =         0.00000000
  ---------------------------------------------------
  free energy    TOTEN  =      -124.83726691 eV

  energy without entropy =     -124.83726691  energy(sigma->0) =     -124.83726691


--------------------------------------------------------------------------------------------------------




----------------------------------------- Iteration    1(  28)  ---------------------------------------


    POTLOK:  cpu time    1.5733: real time    1.5741
    SETDIJ:  cpu time    0.0235: real time    0.0238
    EDDIAG:  cpu time    4.6961: real time    4.7011
  RMM-DIIS:  cpu time   77.6316: real time   78.2811
    ORTHCH:  cpu time    0.4520: real time    0.4524
       DOS:  cpu time    0.0002: real time    0.0002
    CHARGE:  cpu time    1.7832: real time    1.7843
    MIXING:  cpu time    0.1107: real time    0.1107
    --------------------------------------------
      LOOP:  cpu time   86.2739: real time   86.9338

 eigenvalue-minimisations  :  1473
 total energy-change (2. order) :-0.2734346E+01  (-0.1997362E-01)
 number of electron     495.0002402 magnetization      12.6032855
 augmentation part      316.8157176 magnetization      11.6219866

 Broyden mixing:
  rms(total) = 0.11327E+00    rms(broyden)= 0.11326E+00
  rms(prec ) = 0.11470E+00
  weight for this iteration     100.00

 eigenvalues of (default mixing * dielectric matrix)
  average eigenvalue GAMMA=   1.8241
 11.7898  4.6623  2.6424  1.3193  1.3193  1.1228  1.1228  0.7805  0.7287  0.7287
  0.6093  0.5326  0.5326  0.4672  0.3969  0.4307

 Free energy of the ion-electron system (eV)
  ---------------------------------------------------
  alpha Z        PSCENC =        52.86918873
  Ewald energy   TEWEN  =    222361.45841301
  -Hartree energ DENC   =   -279090.29300849
  -exchange      EXHF   =         0.00000000
  -V(xc)+E(xc)   XCENC  =      2003.68370417
  PAW double counting   =     58406.52179901   -63240.28771507
  entropy T*S    EENTRO =         0.00000000
  eigenvalues    EBANDS =     -3213.62530354
  atomic energy  EATOM  =     62592.10130960
  Solvation  Ediel_sol  =         0.00000000
  ---------------------------------------------------
  free energy    TOTEN  =      -127.57161257 eV

  energy without entropy =     -127.57161257  energy(sigma->0) =     -127.57161257


--------------------------------------------------------------------------------------------------------




----------------------------------------- Iteration    1(  29)  ---------------------------------------


    POTLOK:  cpu time    1.5665: real time    1.5672
    SETDIJ:  cpu time    0.0227: real time    0.0231
    EDDIAG:  cpu time    4.6942: real time    4.6981
  RMM-DIIS:  cpu time   78.3043: real time   78.4237
    ORTHCH:  cpu time    0.4551: real time    0.4552
       DOS:  cpu time    0.0002: real time    0.0002
    CHARGE:  cpu time    1.7619: real time    1.7645
    MIXING:  cpu time    0.1201: real time    0.1201
    --------------------------------------------
      LOOP:  cpu time   86.9283: real time   87.0582

 eigenvalue-minimisations  :  1474
 total energy-change (2. order) :-0.2978115E+01  (-0.1181615E-01)
 number of electron     495.0002402 magnetization       9.4316823
 augmentation part      316.8003640 magnetization       8.4817759

 Broyden mixing:
  rms(total) = 0.84204E-01    rms(broyden)= 0.84193E-01
  rms(prec ) = 0.85281E-01
  weight for this iteration     100.00

 eigenvalues of (default mixing * dielectric matrix)
  average eigenvalue GAMMA=   1.8774
 12.2614  5.4297  2.8894  1.5119  1.4038  1.4038  0.9324  0.9324  0.7711  0.7711
  0.6309  0.6309  0.5204  0.5204  0.4780  0.4313  0.3971

 Free energy of the ion-electron system (eV)
  ---------------------------------------------------
  alpha Z        PSCENC =        52.86918873
  Ewald energy   TEWEN  =    222361.45841301
[...]
 17       -0.000   0.006   0.003   0.008
 18        0.000   0.006   0.003   0.009
 19        0.000   0.006   0.006   0.012
 20        0.000   0.004   0.000   0.004
 21        0.000   0.004   0.000   0.004
 22        0.000   0.004   0.000   0.004
 23        0.000   0.004   0.000   0.004
 24        0.001   0.001   0.005   0.006
 25        0.001   0.000   0.005   0.006
 26        0.001   0.001   0.005   0.006
 27        0.001   0.000   0.005   0.006
 28        0.002   0.003  -0.000   0.004
 29        0.002   0.003  -0.000   0.004
 30        0.005   0.002   0.002   0.010
 31        0.005   0.002   0.002   0.010
 32       -0.001   0.001   0.005   0.005
 33       -0.001   0.001   0.005   0.005
 34        0.005   0.002   0.002   0.010
 35        0.006   0.002   0.002   0.010
 36       -0.000   0.001   0.004   0.005
 37       -0.000   0.001   0.004   0.005
 38       -0.000   0.001   0.004   0.005
 39       -0.000   0.001   0.004   0.005
 40       -0.001   0.005   0.002   0.006
 41       -0.001   0.001  -0.000   0.000
 42       -0.001   0.001  -0.000   0.000
 43       -0.001   0.005   0.002   0.006
 44       -0.000   0.003   0.000   0.003
 45       -0.000   0.003   0.000   0.003
------------------------------------------------
tot        0.116   0.157   0.177   0.450
 
    CHARGE:  cpu time    1.7757: real time    1.7787
    FORLOC:  cpu time    0.1698: real time    0.1701
    FORNL :  cpu time   39.2450: real time   39.3162
    STRESS:  cpu time  139.5165: real time  139.8224
    FORCOR:  cpu time    1.6657: real time    1.6673
    FORHAR:  cpu time    0.3316: real time    0.3379
    MIXING:  cpu time    0.4554: real time    0.4556
    OFIELD:  cpu time    0.0001: real time    0.0001

  FORCE on cell =-STRESS in cart. coord.  units (eV):
  Direction    XX          YY          ZZ          XY          YZ          ZX
  --------------------------------------------------------------------------------------
  Alpha Z    52.86919    52.86919    52.86919
  Ewald   91142.90749 84688.52099 46529.93909  8079.68086    16.36812    -8.49581
  Hartree109034.09696102824.09303 67149.83497  7731.57479    15.56333    -8.42222
  E(xc)   -2888.26742 -2888.54278 -2891.85697     0.39609     0.00131     0.00004
  Local  ************************************-15815.07061   -31.92332    16.92571
  n-local -1033.40838 -1034.97274 -1041.80615     2.10288    -0.01711     0.01141
  augment  4231.48040  4231.24825  4252.54494     0.39105    -0.00598    -0.00264
  Kinetic  4044.21055  4043.36451  4071.14026     1.17037    -0.01465     0.00089
  Fock        0.00000     0.00000     0.00000     0.00000     0.00000     0.00000
  -------------------------------------------------------------------------------------
  Total     -12.12529   -12.40894   -11.90232     0.24542    -0.02830     0.01738
  in kB      -0.69353    -0.70976    -0.68078     0.01404    -0.00162     0.00099
  external pressure =       -0.69 kB  Pullay stress =        0.00 kB


 VOLUME and BASIS-vectors are now :
 -----------------------------------------------------------------------------
  energy-cutoff  :      295.45
  volume of cell :    28011.39
      direct lattice vectors                 reciprocal lattice vectors
    30.370005334  0.000000000  0.000000000     0.032927225  0.000000000  0.000000000
     0.000000000 30.370005334  0.000000000     0.000000000  0.032927225  0.000000000
     0.000000000  0.000000000 30.370005334     0.000000000  0.000000000  0.032927225

  length of vectors
    30.370005334 30.370005334 30.370005334     0.032927225  0.032927225  0.032927225


 FORCES acting on ions
    electron-ion (+dipol)            ewald-force                    non-local-force                 convergence-correction
 -----------------------------------------------------------------------------------------------
   0.359E+03 0.126E+04 0.197E+04   -.359E+03 -.125E+04 -.197E+04   0.722E-01 -.702E+00 -.169E+01   -.101E-04 0.324E-05 -.163E-04
   0.313E+03 0.117E+04 -.182E+00   -.314E+03 -.117E+04 0.169E+00   0.636E+00 -.137E+01 0.134E-01   -.125E-04 0.488E-05 -.119E-06
   -.978E+03 0.857E+03 0.198E+04   0.977E+03 -.856E+03 -.197E+04   0.971E+00 -.104E+01 -.210E+01   -.192E-06 -.287E-06 -.189E-04
   -.876E+03 0.832E+03 0.260E+01   0.876E+03 -.832E+03 -.260E+01   0.483E+00 -.766E+00 0.216E-02   0.353E-05 -.326E-05 0.211E-05
   0.649E+02 0.417E+02 0.968E+03   -.646E+02 -.415E+02 -.967E+03   -.278E+00 -.159E+00 -.159E+01   -.138E-04 0.492E-05 0.751E-05
   0.287E+02 0.166E+02 0.255E+04   -.287E+02 -.167E+02 -.254E+04   -.190E-01 0.278E-01 -.804E+01   -.109E-05 0.879E-05 -.249E-04
   0.131E+04 -.734E+02 0.197E+04   -.131E+04 0.731E+02 -.197E+04   -.701E+00 0.336E+00 -.172E+01   -.814E-05 0.414E-05 -.163E-04
   -.965E+03 -.686E+03 0.202E+04   0.964E+03 0.686E+03 -.201E+04   0.951E-01 0.808E-01 -.207E+01   -.416E-05 0.869E-05 -.221E-04
   0.490E+03 -.121E+04 0.197E+04   -.490E+03 0.121E+04 -.197E+04   -.674E+00 0.126E+01 -.209E+01   -.818E-05 0.639E-05 -.158E-04
   0.121E+04 -.897E+02 -.220E+00   -.121E+04 0.887E+02 0.231E+00   -.108E+01 0.106E+01 -.114E-01   -.583E-05 0.664E-06 0.733E-06
   -.831E+03 -.596E+03 -.563E+00   0.831E+03 0.595E+03 0.561E+00   0.708E+00 0.512E+00 0.152E-02   -.692E-05 0.261E-05 -.655E-07
   0.500E+03 -.110E+04 -.107E+01   -.499E+03 0.110E+04 0.107E+01   -.582E+00 0.716E+00 -.640E-02   -.104E-04 0.658E-05 0.323E-07
   0.359E+03 0.126E+04 -.197E+04   -.359E+03 -.126E+04 0.197E+04   0.726E-01 -.713E+00 0.169E+01   -.973E-05 0.330E-05 0.741E-05
   -.978E+03 0.857E+03 -.197E+04   0.977E+03 -.856E+03 0.197E+04   0.967E+00 -.103E+01 0.209E+01   -.703E-06 -.101E-06 0.629E-05
   0.638E+02 0.426E+02 -.968E+03   -.635E+02 -.424E+02 0.967E+03   -.257E+00 -.183E+00 0.159E+01   -.135E-04 0.457E-05 -.967E-05
   0.282E+02 0.178E+02 -.255E+04   -.282E+02 -.178E+02 0.254E+04   -.583E-02 0.154E-01 0.805E+01   -.172E-05 0.859E-05 0.170E-04
   0.131E+04 -.725E+02 -.197E+04   -.131E+04 0.722E+02 0.197E+04   -.684E+00 0.339E+00 0.171E+01   -.770E-05 0.435E-05 0.659E-05
   -.964E+03 -.686E+03 -.202E+04   0.964E+03 0.686E+03 0.201E+04   0.104E+00 0.864E-01 0.208E+01   -.322E-05 0.844E-05 0.146E-04
   0.491E+03 -.121E+04 -.197E+04   -.490E+03 0.121E+04 0.197E+04   -.682E+00 0.125E+01 0.209E+01   -.871E-05 0.485E-05 0.644E-05
   -.177E+04 0.995E+02 -.122E+04   0.177E+04 -.992E+02 0.122E+04   0.273E+01 -.293E+00 0.759E+00   0.646E-05 0.896E-06 0.304E-05
   -.177E+04 0.998E+02 0.122E+04   0.177E+04 -.995E+02 -.122E+04   0.273E+01 -.295E+00 -.763E+00   0.805E-05 0.207E-05 -.863E-05
   -.486E+03 -.171E+04 -.122E+04   0.486E+03 0.170E+04 0.122E+04   0.619E+00 0.271E+01 0.788E+00   -.272E-05 0.105E-04 0.990E-05
   -.487E+03 -.170E+04 0.122E+04   0.486E+03 0.170E+04 -.122E+04   0.618E+00 0.272E+01 -.790E+00   -.305E-05 0.108E-04 -.147E-04
   -.654E+03 0.211E+04 0.932E+03   0.653E+03 -.210E+04 -.931E+03   0.181E+01 -.466E+01 -.153E+01   -.442E-05 -.890E-05 -.361E-05
   -.654E+03 0.211E+04 -.932E+03   0.653E+03 -.210E+04 0.930E+03   0.180E+01 -.465E+01 0.154E+01   -.361E-05 -.902E-05 0.878E-06
   0.178E+04 -.131E+04 -.932E+03   -.177E+04 0.131E+04 0.930E+03   -.383E+01 0.324E+01 0.156E+01   -.166E-04 0.574E-05 0.631E-06
   0.178E+04 -.131E+04 0.931E+03   -.177E+04 0.131E+04 -.930E+03   -.382E+01 0.324E+01 -.155E+01   -.162E-04 0.646E-05 -.418E-05
   0.146E+04 0.104E+04 -.121E+04   -.145E+04 -.104E+04 0.121E+04   -.236E+01 -.167E+01 0.626E+00   -.163E-04 -.240E-05 0.133E-04
   0.146E+04 0.104E+04 0.121E+04   -.145E+04 -.104E+04 -.121E+04   -.237E+01 -.167E+01 -.629E+00   -.165E-04 -.323E-05 -.173E-04
   -.159E+04 0.158E+04 0.954E+03   0.158E+04 -.157E+04 -.952E+03   0.387E+01 -.520E+01 -.192E+01   0.820E-05 0.441E-05 -.249E-05
   -.159E+04 0.158E+04 -.954E+03   0.158E+04 -.157E+04 0.952E+03   0.384E+01 -.518E+01 0.191E+01   0.962E-05 0.277E-05 0.864E-06
   -.170E+04 -.121E+04 0.110E+04   0.170E+04 0.121E+04 -.109E+04   0.330E+01 0.235E+01 -.258E+01   0.146E-05 0.670E-05 -.103E-04
   -.170E+04 -.121E+04 -.110E+04   0.170E+04 0.121E+04 0.109E+04   0.331E+01 0.235E+01 0.259E+01   0.250E-05 0.712E-05 0.783E-05
   0.970E+03 -.201E+04 0.952E+03   -.967E+03 0.201E+04 -.950E+03   -.372E+01 0.540E+01 -.194E+01   0.444E-06 0.257E-05 -.688E-05
   0.970E+03 -.201E+04 -.951E+03   -.967E+03 0.201E+04 0.949E+03   -.371E+01 0.542E+01 0.194E+01   -.751E-06 0.403E-05 0.322E-05
   0.421E+03 0.219E+04 0.949E+03   -.420E+03 -.218E+04 -.947E+03   -.588E+00 -.588E+01 -.273E+01   -.132E-04 -.125E-04 -.517E-05
   0.420E+03 0.219E+04 -.948E+03   -.420E+03 -.218E+04 0.945E+03   -.588E+00 -.589E+01 0.274E+01   -.129E-04 -.129E-04 0.213E-05
   0.220E+04 -.319E+03 0.945E+03   -.220E+04 0.318E+03 -.942E+03   -.582E+01 0.140E+01 -.277E+01   -.132E-04 0.283E-05 -.627E-05
   0.220E+04 -.318E+03 -.947E+03   -.220E+04 0.317E+03 0.944E+03   -.581E+01 0.139E+01 0.276E+01   -.132E-04 0.312E-05 0.368E-05
   -.223E+04 0.749E+03 -.289E+01   0.222E+04 -.746E+03 0.289E+01   0.658E+01 -.347E+01 -.243E-02   0.259E-04 -.771E-05 -.279E-06
   -.229E+04 -.552E+03 -.911E+00   0.228E+04 0.549E+03 0.901E+00   0.724E+01 0.325E+01 0.932E-02   0.191E-04 0.692E-05 -.123E-05
   -.128E+04 -.198E+04 0.138E+01   0.127E+04 0.198E+04 -.137E+01   0.546E+01 0.582E+01 -.128E-01   0.362E-05 0.131E-04 -.146E-05
   -.308E+02 -.235E+04 0.129E+01   0.319E+02 0.234E+04 -.130E+01   -.110E+01 0.737E+01 0.106E-01   -.307E-05 0.304E-04 -.153E-05
   0.221E+04 0.753E+03 -.782E+00   -.221E+04 -.752E+03 0.777E+00   -.733E+01 -.196E+01 0.282E-02   -.206E-04 -.222E-05 -.132E-05
   0.143E+04 0.186E+04 0.149E+01   -.143E+04 -.185E+04 -.148E+01   -.420E+01 -.628E+01 -.647E-02   -.158E-04 -.169E-04 -.143E-05
 -----------------------------------------------------------------------------------------------
   0.203E+01 0.111E+01 0.928E-02   0.227E-11 -.296E-11 -.252E-11   -.219E+01 -.710E+00 -.911E-02   -.210E-03 0.126E-03 -.968E-04
 
 
 POSITION                                       TOTAL-FORCE (eV/Angst)
 -----------------------------------------------------------------------------------
     14.36501     13.04959     12.56845         0.000108     -0.005201     -0.004976
     14.34409     13.06562     15.18470         0.003758     -0.004708      0.000044
     16.79582     13.82361     12.59531        -0.002013      0.002336      0.000341
     16.80502     13.83676     15.18027         0.000176      0.000598      0.005325
     15.04635     15.09084     13.89355         0.003637      0.000777     -0.005065
     15.05756     15.09918     11.37223        -0.001763     -0.000558      0.001501
     12.89009     15.10804     12.56870         0.001871      0.001165     -0.003214
     16.81411     16.33852     12.61391        -0.002472      0.003918     -0.003895
     14.42744     17.15103     12.60038        -0.000626      0.002127     -0.002627
     12.90022     15.08468     15.18587         0.002728      0.000913     -0.000926
     16.80040     16.33483     15.18590        -0.002815     -0.000500     -0.000512
     14.44180     17.16226     15.18711         0.000873     -0.000130     -0.003403
     14.36423     13.04753     17.80244         0.001841     -0.001925      0.003732
     16.79366     13.82551     17.77054         0.000927     -0.001736      0.004238
     15.04772     15.09050     16.47677         0.002635      0.000488      0.003415
     15.05705     15.09905     18.99804         0.000887     -0.000964     -0.002197
     12.89202     15.10693     17.80084        -0.000186      0.001792      0.004309
     16.81299     16.34225     17.75839         0.000884     -0.001821      0.002046
     14.42713     17.15283     17.77216         0.002293     -0.001475     -0.002143
     18.59542     15.08174     16.52816        -0.004768      0.000925      0.002493
     18.59927     15.07923     13.84159        -0.008801      0.002996     -0.001989
     16.20304     18.44742     16.53381        -0.003501     -0.001607      0.002422
     16.20282     18.44561     13.83601        -0.001815     -0.000269     -0.001966
     16.09389     11.81625     13.93060        -0.000844      0.000297     -0.000007
     16.09263     11.81718     16.43747         0.001597     -0.001055      0.001064
     12.29894     17.14654     16.43897         0.002920     -0.002023     -0.001098
     12.29897     17.14600     13.93279         0.002423      0.000479     -0.000765
     12.18331     13.04558     16.55931         0.005254      0.001220      0.000180
     12.18282     13.04821     13.81110         0.005024     -0.000567     -0.000569
     18.48918     12.59780     13.93946        -0.007550      0.001289      0.001848
     18.48480     12.59974     16.42707        -0.002179     -0.000240     -0.000125
     18.54319     17.57242     13.95139        -0.001118      0.002467     -0.003121
     18.54338     17.57555     16.42011        -0.002533     -0.000009      0.001929
     13.82199     19.15750     13.94143        -0.003260     -0.000883      0.001034
     13.82185     19.15858     16.42838        -0.003175     -0.001902      0.001302
     13.71320     11.07941     13.94541         0.002889     -0.002236      0.001922
     13.71309     11.07784     16.42267         0.003513      0.000215      0.000453
     10.81333     15.13621     13.95101         0.011887      0.001371     -0.000342
     10.81591     15.13497     16.42203         0.008704      0.000589     -0.001238
     20.24538     13.84063     15.18853        -0.005530      0.004262     -0.002954
     20.26738     16.28812     15.18636        -0.007159      0.004263     -0.000876
     17.90527     19.62300     15.18349        -0.004839     -0.002463      0.001952
     15.58692     20.40613     15.18308        -0.003564     -0.004406      0.001915
     10.14803     13.09497     15.18639         0.002941      0.000760     -0.001516
     11.57837     11.09894     15.18293         0.000740      0.001430      0.002060
 -----------------------------------------------------------------------------------
    total drift:                               -0.169494      0.399128      0.000076


--------------------------------------------------------------------------------------------------------



  FREE ENERGIE OF THE ION-ELECTRON SYSTEM (eV)
  ---------------------------------------------------
  free  energy   TOTEN  =      -134.61881331 eV

  energy  without entropy=     -134.61881331  energy(sigma->0) =     -134.61881331
 


--------------------------------------------------------------------------------------------------------


    POTLOK:  cpu time    1.6090: real time    1.6102


--------------------------------------------------------------------------------------------------------




--------------------------------------------------------------------------------------------------------


  
 reached required accuracy - stopping structural energy minimisation
     LOOP+:  cpu time 4601.7875: real time 4613.6659
    4ORBIT:  cpu time    0.0000: real time    0.0000
 


 total charge     
 
# of ion     s       p       d       tot
----------------------------------------
  1        0.458   0.270   9.204   9.932
  2        0.456   0.398   9.195  10.049
  3        0.451   0.275   9.207   9.933
  4        0.462   0.395   9.193  10.050
  5        0.455   0.382   9.211  10.048
  6        0.469   0.214   9.231   9.914
  7        0.458   0.268   9.205   9.931
  8        0.461   0.280   9.202   9.943
  9        0.452   0.276   9.207   9.934
 10        0.455   0.397   9.195  10.048
 11        0.461   0.386   9.188  10.036
 12        0.462   0.394   9.193  10.049
 13        0.458   0.269   9.204   9.932
 14        0.452   0.276   9.207   9.934
 15        0.455   0.382   9.211  10.048
 16        0.469   0.214   9.231   9.914
 17        0.458   0.269   9.204   9.931
 18        0.461   0.280   9.203   9.943
 19        0.451   0.275   9.207   9.934
 20        0.437   0.307   9.213   9.956
 21        0.436   0.307   9.213   9.956
 22        0.435   0.305   9.213   9.953
 23        0.435   0.305   9.213   9.953
 24        0.448   0.249   9.232   9.929
 25        0.449   0.249   9.232   9.930
 26        0.448   0.248   9.233   9.928
 27        0.448   0.248   9.232   9.928
 28        0.441   0.303   9.210   9.955
 29        0.441   0.303   9.210   9.955
 30        0.458   0.213   9.250   9.922
 31        0.458   0.214   9.250   9.923
 32        0.453   0.259   9.232   9.943
 33        0.452   0.258   9.232   9.943
 34        0.457   0.212   9.250   9.920
 35        0.457   0.212   9.251   9.920
 36        0.455   0.223   9.247   9.925
 37        0.455   0.223   9.247   9.925
 38        0.454   0.221   9.247   9.922
 39        0.454   0.222   9.247   9.923
 40        0.481   0.175   9.250   9.906
 41        0.480   0.175   9.252   9.906
 42        0.479   0.174   9.252   9.905
 43        0.481   0.174   9.250   9.905
 44        0.483   0.177   9.250   9.910
 45        0.484   0.178   9.250   9.911
------------------------------------------------
tot       20.566  12.033 415.058 447.657
 


 magnetization (x)
 
# of ion     s       p       d       tot
----------------------------------------
  1       -0.000   0.006   0.003   0.008
  2        0.000   0.005   0.001   0.006
  3        0.000   0.006   0.006   0.012
  4        0.000   0.003   0.009   0.012
  5        0.019   0.001   0.019   0.038
  6        0.025   0.009   0.013   0.047
  7       -0.000   0.006   0.003   0.008
  8        0.000   0.006   0.003   0.009
  9        0.000   0.006   0.006   0.012
 10        0.000   0.005   0.001   0.006
 11       -0.000   0.009  -0.002   0.006
 12        0.000   0.003   0.009   0.012
 13       -0.000   0.006   0.003   0.008
 14        0.000   0.006   0.006   0.012
 15        0.019   0.001   0.019   0.038
 16        0.025   0.009   0.013   0.047
 17       -0.000   0.006   0.003   0.008
 18        0.000   0.006   0.003   0.009
 19        0.000   0.006   0.006   0.012
 20        0.000   0.004   0.000   0.004
 21        0.000   0.004   0.000   0.004
 22        0.000   0.004   0.000   0.004
 23        0.000   0.004   0.000   0.004
 24        0.001   0.001   0.005   0.006
 25        0.001   0.000   0.005   0.006
 26        0.001   0.001   0.005   0.006
 27        0.001   0.000   0.005   0.006
 28        0.002   0.003  -0.000   0.004
 29        0.002   0.003  -0.000   0.004
 30        0.005   0.002   0.002   0.010
 31        0.005   0.002   0.002   0.010
 32       -0.001   0.001   0.005   0.005
 33       -0.001   0.001   0.005   0.005
 34        0.005   0.002   0.002   0.010
 35        0.006   0.002   0.002   0.010
 36       -0.000   0.001   0.004   0.005
 37       -0.000   0.001   0.004   0.005
 38       -0.000   0.001   0.004   0.005
 39       -0.000   0.001   0.004   0.005
 40       -0.001   0.005   0.002   0.006
 41       -0.001   0.001  -0.000   0.000
 42       -0.001   0.001  -0.000   0.000
 43       -0.001   0.005   0.002   0.006
 44       -0.000   0.003   0.000   0.003
 45       -0.000   0.003   0.000   0.003
------------------------------------------------
tot        0.116   0.157   0.177   0.450
 

 total amount of memory used by VASP on root node   246023. kBytes
========================================================================

   base      :      30000. kBytes
   nonl-proj :      23269. kBytes
   fftplans  :      31986. kBytes
   grid      :      81145. kBytes
   one-center:        124. kBytes
   wavefun   :      79499. kBytes
 
  
  
 General timing and accounting informations for this job:
 ========================================================
  
                  Total CPU time used (sec):     4634.600
                            User time (sec):     4572.685
                          System time (sec):       61.915
                         Elapsed time (sec):     4646.632
  
                   Maximum memory used (kb):      402192.
                   Average memory used (kb):           0.
  
                          Minor page faults:      6218446
                          Major page faults:            0
                 Voluntary context switches:         2906
