 vasp.5.4.1 05Feb16 (build Apr 11 2020 03:28:46) gamma-only                     
  
 executed on           IFC91_ompi date 2022.05.24  17:37:45
 running on   24 total cores
 distrk:  each k-point on   24 cores,    1 groups
 distr:  one band on NCORES_PER_BAND=   6 cores,    4 groups


--------------------------------------------------------------------------------------------------------


 INCAR:
 POTCAR:    PAW_PBE Cu 22Jun2005                  
 POTCAR:    PAW_PBE Cu 22Jun2005                  
   VRHFIN =Cu: d10 p1                                                           
   LEXCH  = PE                                                                  
   EATOM  =  1390.9808 eV,  102.2342 Ry                                         
                                                                                
   TITEL  = PAW_PBE Cu 22Jun2005                                                
   LULTRA =        F    use ultrasoft PP ?                                      
   IUNSCR =        1    unscreen: 0-lin 1-nonlin 2-no                           
   RPACOR =    2.000    partial core radius                                     
   POMASS =   63.546; ZVAL   =   11.000    mass and valenz                      
   RCORE  =    2.300    outmost cutoff radius                                   
   RWIGS  =    2.200; RWIGS  =    1.164    wigner-seitz radius (au A)           
   ENMAX  =  295.446; ENMIN  =  221.585 eV                                      
   ICORE  =        3    local potential                                         
   LCOR   =        T    correct aug charges                                     
   LPAW   =        T    paw PP                                                  
   EAUG   =  586.980                                                            
   DEXC   =    0.000                                                            
   RMAX   =    2.344    core radius for proj-oper                               
   RAUG   =    1.300    factor for augmentation sphere                          
   RDEP   =    2.302    radius for radial grids                                 
   RDEPT  =    1.771    core radius for aug-charge                              
                                                                                
   Atomic configuration                                                         
    9 entries                                                                   
     n  l   j            E        occ.                                          
     1  0  0.50     -8850.2468   2.0000                                         
     2  0  0.50     -1062.3498   2.0000                                         
     2  1  1.50      -916.8226   6.0000                                         
     3  0  0.50      -114.6929   2.0000                                         
     3  1  1.50       -72.1325   6.0000                                         
     3  2  2.50        -5.0394  10.0000                                         
     4  0  0.50        -4.6097   1.0000                                         
     4  1  0.50        -4.0817   0.0000                                         
     4  3  2.50        -1.3606   0.0000                                         
   Description                                                                  
     l       E           TYP  RCUT    TYP  RCUT                                 
     2     -5.0393973     23  2.200                                             
     2     10.8846608     23  2.200                                             
     0     -4.6097109     23  2.200                                             
     0      8.2520465     23  2.200                                             
     1     -2.7211652     23  2.200                                             
     1     21.7055443     23  2.200                                             
     3      2.7211652     23  2.300                                             
  local pseudopotential read in
  partial core-charges read in
  partial kinetic energy density read in
  atomic valenz-charges read in
  non local Contribution for L=           2  read in
    real space projection operators read in
  non local Contribution for L=           2  read in
    real space projection operators read in
  non local Contribution for L=           0  read in
    real space projection operators read in
  non local Contribution for L=           0  read in
    real space projection operators read in
  non local Contribution for L=           1  read in
    real space projection operators read in
  non local Contribution for L=           1  read in
    real space projection operators read in
    PAW grid and wavefunctions read in
 
   number of l-projection  operators is LMAX  =           6
   number of lm-projection operators is LMMAX =          18
 

 ----------------------------------------------------------------------------- 
|                                                                             |
|  ADVICE TO THIS USER RUNNING 'VASP/VAMP'   (HEAR YOUR MASTER'S VOICE ...):  |
|                                                                             |
|      You have a (more or less) 'large supercell' and for larger cells       |
|      it might be more efficient to use real space projection opertators     |
|      So try LREAL= Auto  in the INCAR   file.                               |
|      Mind: At the moment your POTCAR file does not contain real space       |
|       projectors, and has to be modified,  BUT if you                       |
|      want to do an extremely  accurate calculation you might also keep the  |
|      reciprocal projection scheme          (i.e. LREAL=.FALSE.)             |
|                                                                             |
 ----------------------------------------------------------------------------- 

  PAW_PBE Cu 22Jun2005                  :
 energy of atom  1       EATOM=-1390.9808
 kinetic energy error for atom=    0.0452 (will be added to EATOM!!)
 
 
 POSCAR: Unknown Structure <s> Cu </s>           
  positions in direct lattice
  velocities in cartesian coordinates
 exchange correlation table for  LEXCH =        8
   RHO(1)=    0.500       N(1)  =     2000
   RHO(2)=  100.500       N(2)  =     4000
 


--------------------------------------------------------------------------------------------------------


 ion  position               nearest neighbor table
   1  0.588  0.561  0.478-  11 2.40  38 2.41   2 2.42  33 2.42   9 2.48   3 2.51   4 2.54  36 2.55
                            32 2.57  35 2.58  19 2.59  27 2.61
   2  0.676  0.612  0.489-   1 2.42   3 2.49  38 2.50  36 2.51  11 2.51   9 2.54
   3  0.642  0.551  0.568-   4 2.46   2 2.49   1 2.51   9 2.52   7 2.53  36 2.55  30 2.60   6 2.60

   4  0.554  0.497  0.558-   7 2.40   3 2.46  33 2.46  30 2.47   6 2.50  13 2.52   5 2.53  26 2.54
                             1 2.54  32 2.56  16 2.57  19 2.57
   5  0.446  0.497  0.558-  15 2.40  12 2.46  33 2.46  20 2.47   8 2.50  14 2.52   4 2.53  26 2.54
                            17 2.54  40 2.56  16 2.57  19 2.57
   6  0.553  0.577  0.627-  19 2.48   4 2.50   8 2.51   7 2.51  16 2.54   9 2.58   3 2.60
   7  0.605  0.486  0.645-   4 2.40  16 2.48  13 2.50   6 2.51  30 2.52   3 2.53
   8  0.447  0.577  0.627-  19 2.48   5 2.50   6 2.51  15 2.51  16 2.54  23 2.58  12 2.60
   9  0.589  0.641  0.546-  19 2.43   1 2.48  11 2.48   3 2.52   2 2.54   6 2.58  10 2.65
  10  0.500  0.681  0.491-  19 2.42  27 2.43  11 2.51  21 2.51   9 2.65  23 2.65
  11  0.591  0.656  0.442-   1 2.40   9 2.48   2 2.51  10 2.51  27 2.53  38 2.66
  12  0.358  0.551  0.568-   5 2.46  22 2.49  17 2.51  23 2.52  15 2.53  43 2.55  20 2.60   8 2.60

  13  0.554  0.402  0.605-   7 2.50  18 2.50  26 2.50   4 2.52  14 2.54  30 2.58  31 2.58  16 2.61

  14  0.446  0.402  0.605-  15 2.50  18 2.50  26 2.50   5 2.52  13 2.54  20 2.58  45 2.58  16 2.61

  15  0.395  0.486  0.645-   5 2.40  16 2.48  14 2.50   8 2.51  20 2.52  12 2.53
  16  0.500  0.487  0.652-   7 2.48  15 2.48   6 2.54   8 2.54   5 2.57   4 2.57  14 2.61  13 2.61

  17  0.412  0.561  0.478-  21 2.40  42 2.41  22 2.42  33 2.42  23 2.48  12 2.51   5 2.54  43 2.55
                            40 2.57  41 2.58  19 2.59  27 2.61
  18  0.500  0.323  0.559-  26 2.40  14 2.50  13 2.50  31 2.52  45 2.52  25 2.54
  19  0.500  0.590  0.538-  10 2.42   9 2.43  23 2.43   6 2.48   8 2.48  33 2.52   5 2.57   4 2.57
                            17 2.59   1 2.59  27 2.67
  20  0.358  0.442  0.555-   5 2.47  44 2.49  40 2.51  15 2.52  43 2.55  45 2.56  14 2.58  12 2.60

  21  0.409  0.656  0.442-  17 2.40  23 2.48  22 2.51  10 2.51  27 2.53  42 2.66
  22  0.324  0.612  0.489-  17 2.42  12 2.49  42 2.50  43 2.51  21 2.51  23 2.54
  23  0.411  0.641  0.546-  19 2.43  17 2.48  21 2.48  12 2.52  22 2.54   8 2.58  10 2.65
  24  0.500  0.426  0.403-  25 2.47  33 2.48  28 2.53  29 2.53  41 2.59  35 2.59  40 2.59  32 2.59
                            26 2.65
  25  0.500  0.334  0.452-  26 2.42  24 2.47  28 2.54  29 2.54  18 2.54  45 2.60  31 2.60
  26  0.500  0.415  0.515-  18 2.40  25 2.42  33 2.46  31 2.50  45 2.50  14 2.50  13 2.50   5 2.54
                             4 2.54  40 2.55  32 2.55  24 2.65
  27  0.500  0.603  0.425-  10 2.43  33 2.46  21 2.53  11 2.53  35 2.58  41 2.58   1 2.61  17 2.61
                            19 2.67
  28  0.409  0.369  0.406-  40 2.40  45 2.50  44 2.51  24 2.53  25 2.54  39 2.71
  29  0.591  0.369  0.406-  32 2.40  31 2.50  34 2.51  24 2.53  25 2.54  37 2.71
  30  0.642  0.442  0.555-   4 2.47  34 2.49  32 2.51   7 2.52  36 2.55  31 2.56  13 2.58   3 2.60

  31  0.589  0.358  0.512-  29 2.50  26 2.50  32 2.52  18 2.52  34 2.54  30 2.56  13 2.58  25 2.60

  32  0.587  0.453  0.464-  29 2.40  37 2.41  34 2.41  33 2.44  30 2.51  31 2.52  26 2.55  36 2.56
                             4 2.56   1 2.57  35 2.58  24 2.59
  33  0.500  0.508  0.469-   1 2.42  17 2.42  35 2.43  41 2.43  32 2.44  40 2.44  26 2.46  27 2.46
                             4 2.46   5 2.46  24 2.48  19 2.52
  34  0.675  0.401  0.463-  32 2.41  30 2.49  29 2.51  37 2.51  36 2.52  31 2.54
  35  0.556  0.519  0.383-  33 2.43  38 2.51  37 2.51  27 2.58   1 2.58  32 2.58  24 2.59  41 2.62

  36  0.681  0.506  0.478-   2 2.51  34 2.52  37 2.52   1 2.55   3 2.55  30 2.55  32 2.56  38 2.58

  37  0.648  0.466  0.384-  32 2.41  38 2.47  34 2.51  35 2.51  36 2.52  29 2.71
  38  0.647  0.570  0.396-   1 2.41  37 2.47   2 2.50  35 2.51  36 2.58  11 2.66
  39  0.352  0.466  0.384-  40 2.41  42 2.47  44 2.51  41 2.51  43 2.52  28 2.71
  40  0.413  0.453  0.464-  28 2.40  39 2.41  44 2.41  33 2.44  20 2.51  45 2.52  26 2.55  43 2.56
                             5 2.56  17 2.57  41 2.58  24 2.59
  41  0.444  0.519  0.383-  33 2.43  42 2.51  39 2.51  27 2.58  17 2.58  40 2.58  24 2.59  35 2.62

  42  0.353  0.570  0.396-  17 2.41  39 2.47  22 2.50  41 2.51  43 2.58  21 2.66
  43  0.319  0.506  0.478-  22 2.51  44 2.52  39 2.52  17 2.55  12 2.55  20 2.55  40 2.56  42 2.58

  44  0.325  0.401  0.463-  40 2.41  20 2.49  28 2.51  39 2.51  43 2.52  45 2.54
  45  0.411  0.358  0.512-  28 2.50  26 2.50  40 2.52  18 2.52  44 2.54  20 2.56  14 2.58  25 2.60

 

IMPORTANT INFORMATION: All symmetrisations will be switched off!
NOSYMM: (Re-)initialisation of all symmetry stuff for point group C_1.

 
 
 KPOINTS: Gamma only                              
  k-points in reciprocal lattice
Space group operators:
 irot       det(A)        alpha          n_x          n_y          n_z        tau_x        tau_y        tau_z
    1     1.000000     0.000001     1.000000     0.000000     0.000000     0.000000     0.000000     0.000000


--------------------------------------------------------------------------------------------------------




 Dimension of arrays:
   k-points           NKPTS =      1   k-points in BZ     NKDIM =      1   number of bands    NBANDS=    368
   number of dos      NEDOS =    301   number of ions     NIONS =     45
   non local maximal  LDIM  =      6   non local SUM 2l+1 LMDIM =     18
   total plane-waves  NPLWV = ******
   max r-space proj   IRMAX =      1   max aug-charges    IRDMAX=   2405
   dimension x,y,z NGX =   100 NGY =  100 NGZ =  100
   dimension x,y,z NGXF=   200 NGYF=  200 NGZF=  200
   support grid    NGXF=   200 NGYF=  200 NGZF=  200
   ions per type =              45
 NGX,Y,Z   is equivalent  to a cutoff of   7.05,  7.05,  7.05 a.u.
 NGXF,Y,Z  is equivalent  to a cutoff of  14.09, 14.09, 14.09 a.u.


 I would recommend the setting:
   dimension x,y,z NGX =    99 NGY =   99 NGZ =   99
 SYSTEM =  unknown system                          
 POSCAR =  Unknown Structure <s> Cu </s>           

 Startparameter for this run:
   NWRITE =      2    write-flag & timer
   PREC   = normal    normal or accurate (medium, high low for compatibility)
   ISTART =      0    job   : 0-new  1-cont  2-samecut
   ICHARG =      2    charge: 1-file 2-atom 10-const
   ISPIN  =      2    spin polarized calculation?
   LNONCOLLINEAR =      F non collinear calculations
   LSORBIT =      F    spin-orbit coupling
   INIWAV =      1    electr: 0-lowe 1-rand  2-diag
   LASPH  =      F    aspherical Exc in radial PAW
   METAGGA=      F    non-selfconsistent MetaGGA calc.

 Electronic Relaxation 1
   ENCUT  =  295.4 eV  21.71 Ry    4.66 a.u.  33.07 33.07 33.07*2*pi/ulx,y,z
   ENINI  =  295.4     initial cutoff
   ENAUG  =  587.0 eV  augmentation charge cutoff
   NELM   =     60;   NELMIN=  2; NELMDL=  0     # of ELM steps 
   EDIFF  = 0.1E-05   stopping-criterion for ELM
   LREAL  =      F    real-space projection
   NLSPLINE    = F    spline interpolate recip. space projectors
   LCOMPAT=      F    compatible to vasp.4.4
   GGA_COMPAT  = T    GGA compatible to vasp.4.4-vasp.4.6
   LMAXPAW     = -100 max onsite density
   LMAXMIX     =    2 max onsite mixed and CHGCAR
   VOSKOWN=      0    Vosko Wilk Nusair interpolation
   ROPT   =    0.00000
 Ionic relaxation
   EDIFFG = -.3E-01   stopping-criterion for IOM
   NSW    =   1000    number of steps for IOM
   NBLOCK =      1;   KBLOCK =   1000    inner block; outer block 
   IBRION =      2    ionic relax: 0-MD 1-quasi-New 2-CG
   NFREE  =      1    steps in history (QN), initial steepest desc. (CG)
   ISIF   =      2    stress and relaxation
   IWAVPR =     11    prediction:  0-non 1-charg 2-wave 3-comb
   ISYM   =      0    0-nonsym 1-usesym 2-fastsym
   LCORR  =      T    Harris-Foulkes like correction to forces

   POTIM  = 0.5000    time-step for ionic-motion
   TEIN   =    0.0    initial temperature
   TEBEG  =    0.0;   TEEND  =   0.0 temperature during run
   SMASS  =  -3.00    Nose mass-parameter (am)
   estimated Nose-frequenzy (Omega)   =  0.10E-29 period in steps =****** mass=  -0.127E-25a.u.
   SCALEE = 1.0000    scale energy and forces
   NPACO  =    256;   APACO  = 16.0  distance and # of slots for P.C.
   PSTRESS=    0.0 pullay stress

  Mass of Ions in am
   POMASS =  63.55
  Ionic Valenz
   ZVAL   =  11.00
  Atomic Wigner-Seitz radii
   RWIGS  =  -1.00
  virtual crystal weights 
   VCA    =   1.00
   NELECT =     495.0000    total number of electrons
   NUPDOWN=      -1.0000    fix difference up-down

 DOS related values:
   EMIN   =  10.00;   EMAX   =-10.00  energy-range for DOS
   EFERMI =   0.00
   ISMEAR =     0;   SIGMA  =   0.00  broadening in eV -4-tet -1-fermi 0-gaus

 Electronic relaxation 2 (details)
   IALGO  =     68    algorithm
   LDIAG  =      T    sub-space diagonalisation (order eigenvalues)
   LSUBROT=      F    optimize rotation matrix (better conditioning)
   TURBO    =      0    0=normal 1=particle mesh
   IRESTART =      0    0=no restart 2=restart with 2 vectors
   NREBOOT  =      0    no. of reboots
   NMIN     =      0    reboot dimension
   EREF     =   0.00    reference energy to select bands
   IMIX   =      4    mixing-type and parameters
     AMIX     =   0.20;   BMIX     =  0.00
     AMIX_MAG =   0.80;   BMIX_MAG =  0.00
     AMIN     =   0.10
     WC   =   100.;   INIMIX=   1;  MIXPRE=   1;  MAXMIX= -45

 Intra band minimization:
   WEIMIN = 0.0010     energy-eigenvalue tresh-hold
   EBREAK =  0.68E-09  absolut break condition
   DEPER  =   0.30     relativ break condition  

   TIME   =   0.40     timestep for ELM

  volume/ion in A,a.u.               =     291.87      1969.65
  Fermi-wavevector in a.u.,A,eV,Ry     =   0.548877  1.037227  4.098971  0.301266
  Thomas-Fermi vector in A             =   1.579761
 
 Write flags
   LWAVE  =      F    write WAVECAR
   LCHARG =      F    write CHGCAR
   LVTOT  =      F    write LOCPOT, total local potential
   LVHAR  =      F    write LOCPOT, Hartree potential only
   LELF   =      F    write electronic localiz. function (ELF)
   LORBIT =     11    0 simple, 1 ext, 2 COOP (PROOUT)


 Dipole corrections
   LMONO  =      F    monopole corrections only (constant potential shift)
   LDIPOL =      F    correct potential (dipole corrections)
   IDIPOL =      0    1-x, 2-y, 3-z, 4-all directions 
   EPSILON=  1.0000000 bulk dielectric constant

 Exchange correlation treatment:
   GGA     =    PE    GGA type
   LEXCH   =     8    internal setting for exchange type
   VOSKOWN=      0    Vosko Wilk Nusair interpolation
   LHFCALC =     F    Hartree Fock is set to
   LHFONE  =     F    Hartree Fock one center treatment
   AEXX    =    0.0000 exact exchange contribution

 Linear response parameters
   LEPSILON=     F    determine dielectric tensor
   LRPA    =     F    only Hartree local field effects (RPA)
   LNABLA  =     F    use nabla operator in PAW spheres
   LVEL    =     F    velocity operator in full k-point grid
   LINTERFAST=   F  fast interpolation
   KINTER  =     0    interpolate to denser k-point grid
   CSHIFT  =0.1000    complex shift for real part using Kramers Kronig
   OMEGAMAX=  -1.0    maximum frequency
   DEG_THRESHOLD= 0.2000000E-02 threshold for treating states as degnerate
   RTIME   =    0.100 relaxation time in fs

 Orbital magnetization related:
   ORBITALMAG=     F  switch on orbital magnetization
   LCHIMAG   =     F  perturbation theory with respect to B field
   DQ        =  0.001000  dq finite difference perturbation B field



--------------------------------------------------------------------------------------------------------


 conjugate gradient relaxation of ions
 charge density and potential will be updated during run
 spin polarized calculation
 RMM-DIIS sequential band-by-band and
  variant of blocked Davidson during initial phase
 perform sub-space diagonalisation
    before iterative eigenvector-optimisation
 modified Broyden-mixing scheme, WC =      100.0
 initial mixing is a Kerker type mixing with AMIX =  0.2000 and BMIX =      0.0001
 Hartree-type preconditioning will be used
 using additional bands          120
 reciprocal scheme for non local part
 use partial core corrections
 calculate Harris-corrections to forces 
   (improved forces if not selfconsistent)
 use gradient corrections 
 use of overlap-Matrix (Vanderbilt PP)
 Gauss-broadening in eV      SIGMA  =   0.00


--------------------------------------------------------------------------------------------------------


  energy-cutoff  :      295.45
  volume of cell :    13134.23
      direct lattice vectors                 reciprocal lattice vectors
    23.594000669  0.000000000  0.000000000     0.042383656  0.000000000  0.000000000
     0.000000000 23.594000669  0.000000000     0.000000000  0.042383656  0.000000000
     0.000000000  0.000000000 23.594000669     0.000000000  0.000000000  0.042383656

  length of vectors
    23.594000669 23.594000669 23.594000669     0.042383656  0.042383656  0.042383656


 
 k-points in units of 2pi/SCALE and weight: Gamma only                              
   0.00000000  0.00000000  0.00000000       1.000
 
 k-points in reciprocal lattice and weights: Gamma only                              
   0.00000000  0.00000000  0.00000000       1.000
 
 position of ions in fractional coordinates (direct lattice) 
   0.58751565  0.56111563  0.47795497
   0.67578612  0.61196904  0.48881622
   0.64246195  0.55085526  0.56827697
   0.55361911  0.49730589  0.55762997
   0.44638449  0.49730775  0.55763109
   0.55317534  0.57704487  0.62736833
   0.60469008  0.48561092  0.64479691
   0.44682970  0.57704598  0.62736840
   0.58926467  0.64103120  0.54623514
   0.50000274  0.68132233  0.49108275
   0.59122008  0.65637593  0.44211273
   0.35754246  0.55085969  0.56827797
   0.55382082  0.40171379  0.60527498
   0.44617872  0.40171689  0.60527678
   0.39531143  0.48561476  0.64479640
   0.50000161  0.48671276  0.65175439
   0.41248883  0.56111601  0.47795653
   0.49999578  0.32304253  0.55891785
   0.50000280  0.59000675  0.53751629
   0.35787545  0.44162082  0.55493548
   0.40878624  0.65637353  0.44210934
   0.32421984  0.61197339  0.48881745
   0.41073962  0.64103191  0.54623429
   0.49999416  0.42633215  0.40305775
   0.49999387  0.33354729  0.45158409
   0.49999805  0.41457082  0.51472088
   0.50000197  0.60253020  0.42484887
   0.40912147  0.36932283  0.40646276
   0.59086634  0.36932138  0.40645727
   0.64212352  0.44161486  0.55493219
   0.58925922  0.35751493  0.51169827
   0.58729421  0.45303580  0.46434895
   0.50000260  0.50807801  0.46882919
   0.67501973  0.40070574  0.46346174
   0.55554886  0.51855409  0.38250111
   0.68059551  0.50648148  0.47757719
   0.64843243  0.46629108  0.38386394
   0.64736687  0.57036073  0.39552201
   0.35156709  0.46629220  0.38386629
   0.41270350  0.45303961  0.46435353
   0.44445089  0.51855518  0.38250194
   0.35263576  0.57036132  0.39552493
   0.31940653  0.50648765  0.47757959
   0.32497139  0.40071567  0.46346569
   0.41073249  0.35751937  0.51170056
 
 position of ions in cartesian coordinates  (Angst):
  13.86184473 13.23896257 11.27686980
  15.94449822 14.43879790 11.53313018
  15.15824756 12.99687933 13.40792730
  13.06208960 11.73343555 13.15672195
  10.53199586 11.73347938 13.15674843
  13.05161934 13.61479704 14.80212881
  14.26705815 11.45750438 15.21333871
  10.54250013 13.61482336 14.80213054
  13.90311092 15.12449045 12.88787221
  11.79706499 16.07511955 11.58660680
  13.94924694 15.48653413 10.43120814
   8.43585701 12.99698385 13.40795086
  13.06684887  9.47803549 14.28085836
  10.52714110  9.47810856 14.28090079
   9.32697821 11.45759487 15.21332667
  11.79703821 11.48350117 15.37749357
   9.73226174 13.23897152 11.27690660
  11.79690071  7.62186573 13.18710819
  11.79706642 13.92061974 12.68215975
   8.44371358 10.41960204 13.09314809
   9.64490291 15.48647755 10.43112797
   7.64964312 14.43890061 11.53315916
   9.69099094 15.12450727 12.88785225
  11.79686262 10.05888104  9.50974479
  11.79685574  7.86971504 10.65467531
  11.79695427  9.78138419 12.14432488
  11.79704692 14.21609805 10.02388443
   9.65281222  8.71380301  9.59008268
  13.94090092  8.71376877  9.58995314
  15.15026274 10.41946119 13.09307049
  13.90298246  8.43520744 12.07300926
  13.85662006 10.68892702 10.95584946
  11.79706158 11.98759284 11.06155618
  15.92641590  9.45425140 10.93491658
  13.10762010 12.23476560  9.02473155
  16.05797084 11.94992431 11.26795644
  15.29911530 11.00167199  9.05688604
  15.27397448 13.45709134  9.33194649
   8.29487425 11.00169855  9.05694148
   9.73732660 10.68901678 10.95595758
  10.48637462 12.23479120  9.02475114
   8.32008829 13.45710537  9.33201552
   7.53607790 11.95006994 11.26801325
   7.66737526  9.45448578 10.93500982
   9.69082271  8.43531215 12.07306342
 


--------------------------------------------------------------------------------------------------------


 use parallel FFT for wavefunctions z direction half grid
 k-point  1 :   0.0000 0.0000 0.0000  plane waves:   75662

 maximum and minimum number of plane-waves per node :     12617    12605

 maximum number of plane-waves:     75662
 maximum index in each direction: 
   IXMAX=   33   IYMAX=   33   IZMAX=   33
   IXMIN=  -33   IYMIN=  -33   IZMIN=    0

 WARNING: aliasing errors must be expected set NGX to 134 to avoid them
 WARNING: aliasing errors must be expected set NGY to 134 to avoid them
 WARNING: aliasing errors must be expected set NGZ to 134 to avoid them
 aliasing errors are usually negligible using standard VASP settings
 and one can safely disregard these warnings

 parallel 3D FFT for wavefunctions:
    minimum data exchange during FFTs selected (reduces bandwidth)
 parallel 3D FFT for charge:
    minimum data exchange during FFTs selected (reduces bandwidth)


 total amount of memory used by VASP on root node   133846. kBytes
========================================================================

   base      :      30000. kBytes
   nonl-proj :      10903. kBytes
   fftplans  :      15678. kBytes
   grid      :      39776. kBytes
   one-center:        124. kBytes
   wavefun   :      37365. kBytes
 
     INWAV:  cpu time    0.0000: real time    0.0000
 Broyden mixing: mesh for mixing (old mesh)
   NGX = 67   NGY = 67   NGZ = 67
  (NGX  =200   NGY  =200   NGZ  =200)
  gives a total of 300763 points

 initial charge density was supplied:
 charge density of overlapping atoms calculated
 number of electron     495.0000000 magnetization     135.0000000
 keeping initial charge density in first step


--------------------------------------------------------------------------------------------------------


 Maximum index for augmentation-charges          201 (set IRDMAX)


--------------------------------------------------------------------------------------------------------


 First call to EWALD:  gamma=   0.075
 Maximum number of real-space cells 3x 3x 3
 Maximum number of reciprocal cells 3x 3x 3

 FEWALD executed in parallel
    FEWALD:  cpu time    0.0026: real time    0.0026


----------------------------------------- Iteration    1(   1)  ---------------------------------------


    POTLOK:  cpu time    0.6360: real time    0.6368
    SETDIJ:  cpu time    0.0159: real time    0.0164
     EDDAV:  cpu time   22.3728: real time   22.4234
       DOS:  cpu time    0.0002: real time    0.0002
    --------------------------------------------
      LOOP:  cpu time   23.0284: real time   23.1080

 eigenvalue-minimisations  :  1536
 total energy-change (2. order) : 0.3225506E+04  (-0.1150211E+05)
 number of electron     495.0000000 magnetization     135.0000000
 augmentation part      495.0000000 magnetization     135.0000000

 Free energy of the ion-electron system (eV)
  ---------------------------------------------------
  alpha Z        PSCENC =       112.75413788
  Ewald energy   TEWEN  =    181793.16550924
  -Hartree energ DENC   =   -238910.75873350
  -exchange      EXHF   =         0.00000000
  -V(xc)+E(xc)   XCENC  =      2079.81639251
  PAW double counting   =     55224.77309112   -59980.31445855
  entropy T*S    EENTRO =         0.00000000
  eigenvalues    EBANDS =       313.96923696
  atomic energy  EATOM  =     62592.10130960
  Solvation  Ediel_sol  =         0.00000000
  ---------------------------------------------------
  free energy    TOTEN  =      3225.50648526 eV

  energy without entropy =     3225.50648526  energy(sigma->0) =     3225.50648526


--------------------------------------------------------------------------------------------------------




----------------------------------------- Iteration    1(   2)  ---------------------------------------


     EDDAV:  cpu time   22.4557: real time   22.4897
       DOS:  cpu time    0.0002: real time    0.0002
    --------------------------------------------
      LOOP:  cpu time   22.4634: real time   22.5002

 eigenvalue-minimisations  :  1544
 total energy-change (2. order) :-0.3122237E+04  (-0.2865482E+04)
 number of electron     495.0000000 magnetization     135.0000000
 augmentation part      495.0000000 magnetization     135.0000000

 Free energy of the ion-electron system (eV)
  ---------------------------------------------------
  alpha Z        PSCENC =       112.75413788
  Ewald energy   TEWEN  =    181793.16550924
  -Hartree energ DENC   =   -238910.75873350
  -exchange      EXHF   =         0.00000000
  -V(xc)+E(xc)   XCENC  =      2079.81639251
  PAW double counting   =     55224.77309112   -59980.31445855
  entropy T*S    EENTRO =         0.00000000
  eigenvalues    EBANDS =     -2808.26787080
  atomic energy  EATOM  =     62592.10130960
  Solvation  Ediel_sol  =         0.00000000
  ---------------------------------------------------
  free energy    TOTEN  =       103.26937750 eV

  energy without entropy =      103.26937750  energy(sigma->0) =      103.26937750


--------------------------------------------------------------------------------------------------------




----------------------------------------- Iteration    1(   3)  ---------------------------------------


     EDDAV:  cpu time   25.7141: real time   25.7701
       DOS:  cpu time    0.0002: real time    0.0002
    --------------------------------------------
      LOOP:  cpu time   25.7235: real time   25.7819

 eigenvalue-minimisations  :  1784
 total energy-change (2. order) :-0.1916681E+03  (-0.1806067E+03)
 number of electron     495.0000000 magnetization     135.0000000
 augmentation part      495.0000000 magnetization     135.0000000

 Free energy of the ion-electron system (eV)
  ---------------------------------------------------
  alpha Z        PSCENC =       112.75413788
  Ewald energy   TEWEN  =    181793.16550924
  -Hartree energ DENC   =   -238910.75873350
  -exchange      EXHF   =         0.00000000
  -V(xc)+E(xc)   XCENC  =      2079.81639251
  PAW double counting   =     55224.77309112   -59980.31445855
  entropy T*S    EENTRO =        -0.00000000
  eigenvalues    EBANDS =     -2999.93592867
  atomic energy  EATOM  =     62592.10130960
  Solvation  Ediel_sol  =         0.00000000
  ---------------------------------------------------
  free energy    TOTEN  =       -88.39868037 eV

  energy without entropy =      -88.39868037  energy(sigma->0) =      -88.39868037


--------------------------------------------------------------------------------------------------------




----------------------------------------- Iteration    1(   4)  ---------------------------------------


     EDDAV:  cpu time   26.7274: real time   26.7615
       DOS:  cpu time    0.0003: real time    0.0003
    --------------------------------------------
      LOOP:  cpu time   26.7468: real time   26.7836

 eigenvalue-minimisations  :  1816
 total energy-change (2. order) :-0.9964081E+01  (-0.9626096E+01)
 number of electron     495.0000000 magnetization     135.0000000
 augmentation part      495.0000000 magnetization     135.0000000

 Free energy of the ion-electron system (eV)
  ---------------------------------------------------
  alpha Z        PSCENC =       112.75413788
  Ewald energy   TEWEN  =    181793.16550924
  -Hartree energ DENC   =   -238910.75873350
  -exchange      EXHF   =         0.00000000
  -V(xc)+E(xc)   XCENC  =      2079.81639251
  PAW double counting   =     55224.77309112   -59980.31445855
  entropy T*S    EENTRO =         0.00000000
  eigenvalues    EBANDS =     -3009.90001016
  atomic energy  EATOM  =     62592.10130960
  Solvation  Ediel_sol  =         0.00000000
  ---------------------------------------------------
  free energy    TOTEN  =       -98.36276186 eV

  energy without entropy =      -98.36276186  energy(sigma->0) =      -98.36276186


--------------------------------------------------------------------------------------------------------




----------------------------------------- Iteration    1(   5)  ---------------------------------------


     EDDAV:  cpu time   26.9316: real time   26.9634
       DOS:  cpu time    0.0002: real time    0.0002
    CHARGE:  cpu time    0.6705: real time    0.6711
    MIXING:  cpu time    0.0141: real time    0.0143
    --------------------------------------------
      LOOP:  cpu time   27.6393: real time   27.6747

 eigenvalue-minimisations  :  1816
 total energy-change (2. order) :-0.3420945E+00  (-0.3408062E+00)
 number of electron     494.9999968 magnetization      48.6000108
 augmentation part      291.2016760 magnetization      43.7063089

 Broyden mixing:
  rms(total) = 0.12040E+02    rms(broyden)= 0.12038E+02
  rms(prec ) = 0.12164E+02
  weight for this iteration     100.00

 Free energy of the ion-electron system (eV)
  ---------------------------------------------------
  alpha Z        PSCENC =       112.75413788
  Ewald energy   TEWEN  =    181793.16550924
  -Hartree energ DENC   =   -238910.75873350
  -exchange      EXHF   =         0.00000000
  -V(xc)+E(xc)   XCENC  =      2079.81639251
  PAW double counting   =     55224.77309112   -59980.31445855
  entropy T*S    EENTRO =         0.00000000
  eigenvalues    EBANDS =     -3010.24210461
  atomic energy  EATOM  =     62592.10130960
  Solvation  Ediel_sol  =         0.00000000
  ---------------------------------------------------
  free energy    TOTEN  =       -98.70485631 eV

  energy without entropy =      -98.70485631  energy(sigma->0) =      -98.70485631


--------------------------------------------------------------------------------------------------------




----------------------------------------- Iteration    1(   6)  ---------------------------------------


    POTLOK:  cpu time    0.6629: real time    0.6739
    SETDIJ:  cpu time    0.0162: real time    0.0167
    EDDIAG:  cpu time    2.0912: real time    2.0942
  RMM-DIIS:  cpu time   16.6366: real time   16.6567
    ORTHCH:  cpu time    0.2916: real time    0.2921
       DOS:  cpu time    0.0002: real time    0.0002
    CHARGE:  cpu time    0.6658: real time    0.6665
    MIXING:  cpu time    0.0154: real time    0.0155
    --------------------------------------------
      LOOP:  cpu time   20.3833: real time   20.4217

 eigenvalue-minimisations  :  1474
 total energy-change (2. order) :-0.3158638E+02  (-0.1698708E+02)
 number of electron     494.9999947 magnetization      -0.7326507
 augmentation part      319.9326322 magnetization       0.6703843

 Broyden mixing:
  rms(total) = 0.51826E+01    rms(broyden)= 0.51811E+01
  rms(prec ) = 0.52169E+01
  weight for this iteration     100.00

 eigenvalues of (default mixing * dielectric matrix)
  average eigenvalue GAMMA=   1.6376
  1.6376

 Free energy of the ion-electron system (eV)
  ---------------------------------------------------
  alpha Z        PSCENC =       112.75413788
  Ewald energy   TEWEN  =    181793.16550924
  -Hartree energ DENC   =   -238158.82299440
  -exchange      EXHF   =         0.00000000
  -V(xc)+E(xc)   XCENC  =      2005.20352110
  PAW double counting   =     55326.54898165   -59960.56772742
  entropy T*S    EENTRO =         0.00000000
  eigenvalues    EBANDS =     -3840.67397134
  atomic energy  EATOM  =     62592.10130960
  Solvation  Ediel_sol  =         0.00000000
  ---------------------------------------------------
  free energy    TOTEN  =      -130.29123368 eV

  energy without entropy =     -130.29123368  energy(sigma->0) =     -130.29123368


--------------------------------------------------------------------------------------------------------




----------------------------------------- Iteration    1(   7)  ---------------------------------------


    POTLOK:  cpu time    0.6493: real time    0.6499
    SETDIJ:  cpu time    0.0169: real time    0.0175
    EDDIAG:  cpu time    2.0614: real time    2.0646
  RMM-DIIS:  cpu time   16.8119: real time   16.8326
    ORTHCH:  cpu time    0.2859: real time    0.2867
       DOS:  cpu time    0.0003: real time    0.0003
    CHARGE:  cpu time    0.6361: real time    0.6364
    MIXING:  cpu time    0.0156: real time    0.0156
    --------------------------------------------
      LOOP:  cpu time   20.4810: real time   20.5417

 eigenvalue-minimisations  :  1480
 total energy-change (2. order) :-0.5822488E+01  (-0.3572884E+01)
 number of electron     494.9999959 magnetization      -1.2007597
 augmentation part      315.6385831 magnetization      -1.0472955

 Broyden mixing:
  rms(total) = 0.82308E+00    rms(broyden)= 0.82223E+00
  rms(prec ) = 0.94463E+00
  weight for this iteration     100.00

 eigenvalues of (default mixing * dielectric matrix)
  average eigenvalue GAMMA=   1.1638
  0.8496  1.4781

 Free energy of the ion-electron system (eV)
  ---------------------------------------------------
  alpha Z        PSCENC =       112.75413788
  Ewald energy   TEWEN  =    181793.16550924
  -Hartree energ DENC   =   -238754.74928648
  -exchange      EXHF   =         0.00000000
  -V(xc)+E(xc)   XCENC  =      2003.45452480
  PAW double counting   =     56381.46151681   -61103.55378728
  entropy T*S    EENTRO =        -0.00000000
  eigenvalues    EBANDS =     -3160.74764673
  atomic energy  EATOM  =     62592.10130960
  Solvation  Ediel_sol  =         0.00000000
  ---------------------------------------------------
  free energy    TOTEN  =      -136.11372217 eV

  energy without entropy =     -136.11372217  energy(sigma->0) =     -136.11372217


--------------------------------------------------------------------------------------------------------




----------------------------------------- Iteration    1(   8)  ---------------------------------------


    POTLOK:  cpu time    0.6411: real time    0.6422
    SETDIJ:  cpu time    0.0162: real time    0.0168
    EDDIAG:  cpu time    2.0933: real time    2.0955
  RMM-DIIS:  cpu time   17.0058: real time   17.0310
    ORTHCH:  cpu time    0.2852: real time    0.2859
       DOS:  cpu time    0.0003: real time    0.0003
    CHARGE:  cpu time    0.6400: real time    0.6405
    MIXING:  cpu time    0.0167: real time    0.0167
    --------------------------------------------
      LOOP:  cpu time   20.7021: real time   20.7503

 eigenvalue-minimisations  :  1478
 total energy-change (2. order) :-0.7017105E+00  (-0.7442932E+00)
 number of electron     494.9999952 magnetization      -1.3786669
 augmentation part      316.3505228 magnetization      -0.2104171

 Broyden mixing:
  rms(total) = 0.64745E+00    rms(broyden)= 0.64693E+00
  rms(prec ) = 0.86329E+00
  weight for this iteration     100.00

 eigenvalues of (default mixing * dielectric matrix)
  average eigenvalue GAMMA=   0.9411
  1.4949  0.8183  0.5101

 Free energy of the ion-electron system (eV)
  ---------------------------------------------------
  alpha Z        PSCENC =       112.75413788
  Ewald energy   TEWEN  =    181793.16550924
  -Hartree energ DENC   =   -238756.78108061
  -exchange      EXHF   =         0.00000000
  -V(xc)+E(xc)   XCENC  =      2001.07472917
  PAW double counting   =     56776.02607891   -61515.80678204
  entropy T*S    EENTRO =         0.00000000
  eigenvalues    EBANDS =     -3139.34933482
  atomic energy  EATOM  =     62592.10130960
  Solvation  Ediel_sol  =         0.00000000
  ---------------------------------------------------
  free energy    TOTEN  =      -136.81543266 eV

  energy without entropy =     -136.81543266  energy(sigma->0) =     -136.81543266


--------------------------------------------------------------------------------------------------------




----------------------------------------- Iteration    1(   9)  ---------------------------------------


    POTLOK:  cpu time    0.6400: real time    0.6408
    SETDIJ:  cpu time    0.0159: real time    0.0159
    EDDIAG:  cpu time    2.0964: real time    2.0989
  RMM-DIIS:  cpu time   17.2867: real time   17.3078
    ORTHCH:  cpu time    0.2730: real time    0.2731
       DOS:  cpu time    0.0002: real time    0.0002
    CHARGE:  cpu time    0.6624: real time    0.6633
    MIXING:  cpu time    0.0175: real time    0.0175
    --------------------------------------------
      LOOP:  cpu time   20.9962: real time   21.0574

 eigenvalue-minimisations  :  1476
 total energy-change (2. order) : 0.1596370E+01  (-0.1361935E+00)
 number of electron     494.9999952 magnetization      -0.2055026
 augmentation part      316.9903049 magnetization      -0.7628783

 Broyden mixing:
  rms(total) = 0.30442E+00    rms(broyden)= 0.30402E+00
  rms(prec ) = 0.33710E+00
  weight for this iteration     100.00

 eigenvalues of (default mixing * dielectric matrix)
  average eigenvalue GAMMA=   0.8921
  1.4805  0.8509  0.8509  0.3862

 Free energy of the ion-electron system (eV)
  ---------------------------------------------------
  alpha Z        PSCENC =       112.75413788
  Ewald energy   TEWEN  =    181793.16550924
  -Hartree energ DENC   =   -238719.26584107
  -exchange      EXHF   =         0.00000000
  -V(xc)+E(xc)   XCENC  =      2000.37080368
  PAW double counting   =     56920.81599977   -61668.26698950
  entropy T*S    EENTRO =         0.00000000
  eigenvalues    EBANDS =     -3166.89399192
  atomic energy  EATOM  =     62592.10130960
  Solvation  Ediel_sol  =         0.00000000
  ---------------------------------------------------
  free energy    TOTEN  =      -135.21906232 eV

  energy without entropy =     -135.21906232  energy(sigma->0) =     -135.21906232


--------------------------------------------------------------------------------------------------------




----------------------------------------- Iteration    1(  10)  ---------------------------------------


    POTLOK:  cpu time    0.6413: real time    0.6418
    SETDIJ:  cpu time    0.0160: real time    0.0160
    EDDIAG:  cpu time    2.1552: real time    2.1578
  RMM-DIIS:  cpu time   17.5278: real time   17.5492
    ORTHCH:  cpu time    0.2785: real time    0.2786
       DOS:  cpu time    0.0002: real time    0.0002
    CHARGE:  cpu time    0.6405: real time    0.6412
    MIXING:  cpu time    0.0184: real time    0.0184
    --------------------------------------------
      LOOP:  cpu time   21.2820: real time   21.3102

 eigenvalue-minimisations  :  1477
 total energy-change (2. order) : 0.1296742E+00  (-0.2153646E-01)
 number of electron     494.9999953 magnetization       1.6424647
 augmentation part      317.0010447 magnetization       0.9697291

 Broyden mixing:
  rms(total) = 0.21031E+00    rms(broyden)= 0.21028E+00
  rms(prec ) = 0.22236E+00
  weight for this iteration     100.00

 eigenvalues of (default mixing * dielectric matrix)
  average eigenvalue GAMMA=   1.0567
  1.9173  1.3994  0.9387  0.6495  0.3786

 Free energy of the ion-electron system (eV)
  ---------------------------------------------------
  alpha Z        PSCENC =       112.75413788
  Ewald energy   TEWEN  =    181793.16550924
  -Hartree energ DENC   =   -238707.51119223
  -exchange      EXHF   =         0.00000000
  -V(xc)+E(xc)   XCENC  =      1999.95100139
  PAW double counting   =     57117.08058141   -61876.33114071
  entropy T*S    EENTRO =         0.00000000
  eigenvalues    EBANDS =     -3166.29959468
  atomic energy  EATOM  =     62592.10130960
  Solvation  Ediel_sol  =         0.00000000
  ---------------------------------------------------
  free energy    TOTEN  =      -135.08938810 eV

  energy without entropy =     -135.08938810  energy(sigma->0) =     -135.08938810


--------------------------------------------------------------------------------------------------------




----------------------------------------- Iteration    1(  11)  ---------------------------------------


    POTLOK:  cpu time    0.6535: real time    0.6542
    SETDIJ:  cpu time    0.0173: real time    0.0173
    EDDIAG:  cpu time    2.1128: real time    2.1166
  RMM-DIIS:  cpu time   17.2277: real time   17.2605
    ORTHCH:  cpu time    0.2897: real time    0.2900
       DOS:  cpu time    0.0002: real time    0.0002
    CHARGE:  cpu time    0.6789: real time    0.6795
    MIXING:  cpu time    0.0202: real time    0.0203
    --------------------------------------------
      LOOP:  cpu time   21.0046: real time   21.0454

 eigenvalue-minimisations  :  1474
 total energy-change (2. order) : 0.1051767E+00  (-0.2573179E-01)
 number of electron     494.9999952 magnetization       1.2760140
 augmentation part      316.7489159 magnetization       0.3846496

 Broyden mixing:
  rms(total) = 0.14863E+00    rms(broyden)= 0.14861E+00
  rms(prec ) = 0.15797E+00
  weight for this iteration     100.00

 eigenvalues of (default mixing * dielectric matrix)
  average eigenvalue GAMMA=   1.0563
  2.2944  1.2696  1.0931  0.6529  0.6529  0.3749

 Free energy of the ion-electron system (eV)
  ---------------------------------------------------
  alpha Z        PSCENC =       112.75413788
  Ewald energy   TEWEN  =    181793.16550924
  -Hartree energ DENC   =   -238701.44316540
  -exchange      EXHF   =         0.00000000
  -V(xc)+E(xc)   XCENC  =      1999.00370858
  PAW double counting   =     57661.08813939   -62453.02661094
  entropy T*S    EENTRO =         0.00000000
  eigenvalues    EBANDS =     -3138.62723975
  atomic energy  EATOM  =     62592.10130960
  Solvation  Ediel_sol  =         0.00000000
  ---------------------------------------------------
  free energy    TOTEN  =      -134.98421140 eV

  energy without entropy =     -134.98421140  energy(sigma->0) =     -134.98421140


--------------------------------------------------------------------------------------------------------




----------------------------------------- Iteration    1(  12)  ---------------------------------------


    POTLOK:  cpu time    0.6582: real time    0.6587
    SETDIJ:  cpu time    0.0162: real time    0.0162
    EDDIAG:  cpu time    2.0802: real time    2.0827
  RMM-DIIS:  cpu time   17.7039: real time   17.7474
    ORTHCH:  cpu time    0.2976: real time    0.2987
       DOS:  cpu time    0.0002: real time    0.0002
    CHARGE:  cpu time    0.6837: real time    0.6848
    MIXING:  cpu time    0.0235: real time    0.0235
    --------------------------------------------
      LOOP:  cpu time   21.4669: real time   21.5462

 eigenvalue-minimisations  :  1480
 total energy-change (2. order) : 0.2542747E-01  (-0.4227170E-02)
 number of electron     494.9999953 magnetization       0.9124205
 augmentation part      316.8006611 magnetization      -0.0261086

 Broyden mixing:
  rms(total) = 0.10015E+00    rms(broyden)= 0.10015E+00
  rms(prec ) = 0.10641E+00
  weight for this iteration     100.00

 eigenvalues of (default mixing * dielectric matrix)
  average eigenvalue GAMMA=   1.2116
  3.1356  1.3404  1.3404  0.8382  0.8382  0.6145  0.3740

 Free energy of the ion-electron system (eV)
  ---------------------------------------------------
  alpha Z        PSCENC =       112.75413788
  Ewald energy   TEWEN  =    181793.16550924
  -Hartree energ DENC   =   -238692.15000581
  -exchange      EXHF   =         0.00000000
  -V(xc)+E(xc)   XCENC  =      1998.39522200
  PAW double counting   =     57876.11948392   -62679.69624839
  entropy T*S    EENTRO =         0.00000000
  eigenvalues    EBANDS =     -3135.64819238
  atomic energy  EATOM  =     62592.10130960
  Solvation  Ediel_sol  =         0.00000000
  ---------------------------------------------------
  free energy    TOTEN  =      -134.95878393 eV

  energy without entropy =     -134.95878393  energy(sigma->0) =     -134.95878393


--------------------------------------------------------------------------------------------------------




----------------------------------------- Iteration    1(  13)  ---------------------------------------


    POTLOK:  cpu time    0.6556: real time    0.6562
    SETDIJ:  cpu time    0.0163: real time    0.0167
    EDDIAG:  cpu time    2.1138: real time    2.1183
  RMM-DIIS:  cpu time   17.1307: real time   17.1502
    ORTHCH:  cpu time    0.2947: real time    0.2951
       DOS:  cpu time    0.0002: real time    0.0002
    CHARGE:  cpu time    0.6531: real time    0.6534
    MIXING:  cpu time    0.0257: real time    0.0257
    --------------------------------------------
      LOOP:  cpu time   20.8939: real time   20.9222

 eigenvalue-minimisations  :  1474
 total energy-change (2. order) : 0.1464054E-01  (-0.2260318E-02)
 number of electron     494.9999952 magnetization       0.9498190
 augmentation part      316.8396009 magnetization       0.0193201

 Broyden mixing:
  rms(total) = 0.62156E-01    rms(broyden)= 0.62150E-01
  rms(prec ) = 0.68608E-01
  weight for this iteration     100.00

 eigenvalues of (default mixing * dielectric matrix)
  average eigenvalue GAMMA=   1.3305
  4.2182  1.7397  1.2693  0.9436  0.7909  0.7909  0.3741  0.5175

 Free energy of the ion-electron system (eV)
  ---------------------------------------------------
  alpha Z        PSCENC =       112.75413788
  Ewald energy   TEWEN  =    181793.16550924
  -Hartree energ DENC   =   -238694.91323227
  -exchange      EXHF   =         0.00000000
  -V(xc)+E(xc)   XCENC  =      1997.57061378
  PAW double counting   =     58155.55821756   -62973.89198508
  entropy T*S    EENTRO =         0.00000000
  eigenvalues    EBANDS =     -3117.28871410
  atomic energy  EATOM  =     62592.10130960
  Solvation  Ediel_sol  =         0.00000000
  ---------------------------------------------------
  free energy    TOTEN  =      -134.94414339 eV

  energy without entropy =     -134.94414339  energy(sigma->0) =     -134.94414339


--------------------------------------------------------------------------------------------------------




----------------------------------------- Iteration    1(  14)  ---------------------------------------


    POTLOK:  cpu time    0.6635: real time    0.6641
    SETDIJ:  cpu time    0.0167: real time    0.0167
    EDDIAG:  cpu time    2.1141: real time    2.1193
  RMM-DIIS:  cpu time   17.4864: real time   17.5310
    ORTHCH:  cpu time    0.2844: real time    0.2845
       DOS:  cpu time    0.0002: real time    0.0002
    CHARGE:  cpu time    0.6851: real time    0.6879
    MIXING:  cpu time    0.0274: real time    0.0274
    --------------------------------------------
      LOOP:  cpu time   21.2822: real time   21.3385

 eigenvalue-minimisations  :  1480
 total energy-change (2. order) : 0.4125894E-02  (-0.1386665E-02)
 number of electron     494.9999952 magnetization       1.0222677
 augmentation part      316.9187905 magnetization       0.1241974

 Broyden mixing:
  rms(total) = 0.29189E-01    rms(broyden)= 0.29175E-01
  rms(prec ) = 0.35483E-01
  weight for this iteration     100.00

 eigenvalues of (default mixing * dielectric matrix)
  average eigenvalue GAMMA=   1.2922
  4.5556  1.7859  1.1388  1.1388  0.8036  0.8036  0.3737  0.5486  0.4812

 Free energy of the ion-electron system (eV)
  ---------------------------------------------------
  alpha Z        PSCENC =       112.75413788
  Ewald energy   TEWEN  =    181793.16550924
  -Hartree energ DENC   =   -238684.53156361
  -exchange      EXHF   =         0.00000000
  -V(xc)+E(xc)   XCENC  =      1997.04602340
  PAW double counting   =     58313.24954782   -63139.80284306
  entropy T*S    EENTRO =         0.00000000
  eigenvalues    EBANDS =     -3118.92213876
  atomic energy  EATOM  =     62592.10130960
  Solvation  Ediel_sol  =         0.00000000
  ---------------------------------------------------
  free energy    TOTEN  =      -134.94001750 eV

  energy without entropy =     -134.94001750  energy(sigma->0) =     -134.94001750


--------------------------------------------------------------------------------------------------------




----------------------------------------- Iteration    1(  15)  ---------------------------------------


    POTLOK:  cpu time    0.6464: real time    0.6470
    SETDIJ:  cpu time    0.0159: real time    0.0159
    EDDIAG:  cpu time    2.1084: real time    2.1121
  RMM-DIIS:  cpu time   17.1291: real time   17.1506
    ORTHCH:  cpu time    0.2929: real time    0.2931
       DOS:  cpu time    0.0002: real time    0.0002
    CHARGE:  cpu time    0.6687: real time    0.6694
    MIXING:  cpu time    0.0290: real time    0.0290
    --------------------------------------------
      LOOP:  cpu time   20.8943: real time   21.0086

 eigenvalue-minimisations  :  1476
 total energy-change (2. order) : 0.2248378E-02  (-0.3185507E-03)
 number of electron     494.9999952 magnetization       1.0203591
 augmentation part      316.9282831 magnetization       0.1318593

 Broyden mixing:
  rms(total) = 0.13379E-01    rms(broyden)= 0.13369E-01
  rms(prec ) = 0.15135E-01
  weight for this iteration     100.00

 eigenvalues of (default mixing * dielectric matrix)
  average eigenvalue GAMMA=   1.2577
  4.5833  1.7560  1.1862  1.1862  0.8889  0.8889  0.7128  0.5716  0.3742  0.4288

 Free energy of the ion-electron system (eV)
  ---------------------------------------------------
  alpha Z        PSCENC =       112.75413788
  Ewald energy   TEWEN  =    181793.16550924
  -Hartree energ DENC   =   -238681.01293392
  -exchange      EXHF   =         0.00000000
  -V(xc)+E(xc)   XCENC  =      1996.87844335
  PAW double counting   =     58375.08992681   -63205.08500872
  entropy T*S    EENTRO =         0.00000000
  eigenvalues    EBANDS =     -3118.82915336
  atomic energy  EATOM  =     62592.10130960
  Solvation  Ediel_sol  =         0.00000000
  ---------------------------------------------------
  free energy    TOTEN  =      -134.93776912 eV

  energy without entropy =     -134.93776912  energy(sigma->0) =     -134.93776912


--------------------------------------------------------------------------------------------------------




----------------------------------------- Iteration    1(  16)  ---------------------------------------


    POTLOK:  cpu time    0.6443: real time    0.6449
    SETDIJ:  cpu time    0.0160: real time    0.0160
    EDDIAG:  cpu time    2.1171: real time    2.1199
  RMM-DIIS:  cpu time   16.9596: real time   16.9798
    ORTHCH:  cpu time    0.2808: real time    0.2809
       DOS:  cpu time    0.0003: real time    0.0003
    CHARGE:  cpu time    0.6403: real time    0.6412
    MIXING:  cpu time    0.0297: real time    0.0297
    --------------------------------------------
      LOOP:  cpu time   20.6921: real time   20.7194

 eigenvalue-minimisations  :  1475
 total energy-change (2. order) : 0.3524377E-03  (-0.7137577E-04)
 number of electron     494.9999952 magnetization       0.9841643
 augmentation part      316.9090343 magnetization       0.0946359

 Broyden mixing:
  rms(total) = 0.92348E-02    rms(broyden)= 0.92335E-02
  rms(prec ) = 0.10178E-01
  weight for this iteration     100.00

 eigenvalues of (default mixing * dielectric matrix)
  average eigenvalue GAMMA=   1.3215
  4.7136  2.4028  1.5949  1.1030  1.1030  0.8198  0.8198  0.6444  0.5511  0.3740
  0.4102

 Free energy of the ion-electron system (eV)
  ---------------------------------------------------
  alpha Z        PSCENC =       112.75413788
  Ewald energy   TEWEN  =    181793.16550924
  -Hartree energ DENC   =   -238681.32184186
  -exchange      EXHF   =         0.00000000
  -V(xc)+E(xc)   XCENC  =      1996.87749762
  PAW double counting   =     58386.48612760   -63217.29352430
  entropy T*S    EENTRO =         0.00000000
  eigenvalues    EBANDS =     -3117.70663246
  atomic energy  EATOM  =     62592.10130960
  Solvation  Ediel_sol  =         0.00000000
  ---------------------------------------------------
  free energy    TOTEN  =      -134.93741668 eV

  energy without entropy =     -134.93741668  energy(sigma->0) =     -134.93741668


--------------------------------------------------------------------------------------------------------




----------------------------------------- Iteration    1(  17)  ---------------------------------------


    POTLOK:  cpu time    0.6650: real time    0.6658
    SETDIJ:  cpu time    0.0157: real time    0.0157
    EDDIAG:  cpu time    2.1258: real time    2.1289
  RMM-DIIS:  cpu time   17.3841: real time   17.4163
    ORTHCH:  cpu time    0.2819: real time    0.2822
       DOS:  cpu time    0.0002: real time    0.0002
    CHARGE:  cpu time    0.6414: real time    0.6423
    MIXING:  cpu time    0.0339: real time    0.0341
    --------------------------------------------
      LOOP:  cpu time   21.1516: real time   22.1263

 eigenvalue-minimisations  :  1474
 total energy-change (2. order) : 0.1695378E-03  (-0.5778274E-04)
 number of electron     494.9999952 magnetization       0.9881723
 augmentation part      316.9072604 magnetization       0.1041187

 Broyden mixing:
  rms(total) = 0.44302E-02    rms(broyden)= 0.44284E-02
  rms(prec ) = 0.50042E-02
  weight for this iteration     100.00

 eigenvalues of (default mixing * dielectric matrix)
  average eigenvalue GAMMA=   1.3458
  4.8428  2.9351  1.7138  1.1389  1.1389  0.8793  0.8793  0.6525  0.6525  0.5346
  0.3739  0.4080

 Free energy of the ion-electron system (eV)
  ---------------------------------------------------
  alpha Z        PSCENC =       112.75413788
  Ewald energy   TEWEN  =    181793.16550924
  -Hartree energ DENC   =   -238678.31337477
  -exchange      EXHF   =         0.00000000
  -V(xc)+E(xc)   XCENC  =      1996.83236059
  PAW double counting   =     58403.57091763   -63235.43732867
  entropy T*S    EENTRO =         0.00000000
  eigenvalues    EBANDS =     -3119.61077864
  atomic energy  EATOM  =     62592.10130960
  Solvation  Ediel_sol  =         0.00000000
  ---------------------------------------------------
  free energy    TOTEN  =      -134.93724714 eV

  energy without entropy =     -134.93724714  energy(sigma->0) =     -134.93724714


--------------------------------------------------------------------------------------------------------




----------------------------------------- Iteration    1(  18)  ---------------------------------------


    POTLOK:  cpu time    0.6598: real time    0.6728
    SETDIJ:  cpu time    0.0163: real time    0.0170
    EDDIAG:  cpu time    2.0974: real time    2.1006
  RMM-DIIS:  cpu time   17.2789: real time   17.3034
    ORTHCH:  cpu time    0.2758: real time    0.2759
       DOS:  cpu time    0.0002: real time    0.0002
    CHARGE:  cpu time    0.6559: real time    0.6567
    MIXING:  cpu time    0.0383: real time    0.0383
    --------------------------------------------
      LOOP:  cpu time   21.0269: real time   21.0718

 eigenvalue-minimisations  :  1480
 total energy-change (2. order) :-0.2879060E-05  (-0.2412221E-04)
 number of electron     494.9999952 magnetization       0.9970775
 augmentation part      316.9040163 magnetization       0.1127609

 Broyden mixing:
  rms(total) = 0.27600E-02    rms(broyden)= 0.27588E-02
  rms(prec ) = 0.30484E-02
  weight for this iteration     100.00

 eigenvalues of (default mixing * dielectric matrix)
  average eigenvalue GAMMA=   1.3536
  4.9361  3.1410  1.7414  1.2920  1.2257  1.0424  0.8323  0.8323  0.7270  0.5623
  0.3740  0.4828  0.4077

 Free energy of the ion-electron system (eV)
  ---------------------------------------------------
  alpha Z        PSCENC =       112.75413788
  Ewald energy   TEWEN  =    181793.16550924
  -Hartree energ DENC   =   -238677.79943239
  -exchange      EXHF   =         0.00000000
  -V(xc)+E(xc)   XCENC  =      1996.81016183
  PAW double counting   =     58412.27896701   -63244.66988714
  entropy T*S    EENTRO =         0.00000000
  eigenvalues    EBANDS =     -3119.57801606
  atomic energy  EATOM  =     62592.10130960
  Solvation  Ediel_sol  =         0.00000000
  ---------------------------------------------------
  free energy    TOTEN  =      -134.93725002 eV

  energy without entropy =     -134.93725002  energy(sigma->0) =     -134.93725002


--------------------------------------------------------------------------------------------------------




----------------------------------------- Iteration    1(  19)  ---------------------------------------


    POTLOK:  cpu time    0.6650: real time    0.6656
    SETDIJ:  cpu time    0.0163: real time    0.0169
    EDDIAG:  cpu time    2.0833: real time    2.0860
  RMM-DIIS:  cpu time   17.2754: real time   17.2995
    ORTHCH:  cpu time    0.2969: real time    0.2974
       DOS:  cpu time    0.0002: real time    0.0002
    CHARGE:  cpu time    0.6350: real time    0.6357
    MIXING:  cpu time    0.0421: real time    0.0421
    --------------------------------------------
      LOOP:  cpu time   21.0183: real time   21.0502

 eigenvalue-minimisations  :  1478
 total energy-change (2. order) :-0.7514369E-05  (-0.4858675E-05)
 number of electron     494.9999952 magnetization       1.0007429
 augmentation part      316.9083784 magnetization       0.1156842

 Broyden mixing:
  rms(total) = 0.13576E-02    rms(broyden)= 0.13572E-02
  rms(prec ) = 0.14553E-02
  weight for this iteration     100.00

 eigenvalues of (default mixing * dielectric matrix)
  average eigenvalue GAMMA=   1.3484
  4.8850  3.2864  1.8500  1.5733  1.1929  1.0511  0.9103  0.9103  0.6858  0.6858
  0.5325  0.5325  0.3740  0.4078

 Free energy of the ion-electron system (eV)
  ---------------------------------------------------
  alpha Z        PSCENC =       112.75413788
  Ewald energy   TEWEN  =    181793.16550924
  -Hartree energ DENC   =   -238677.35870835
  -exchange      EXHF   =         0.00000000
  -V(xc)+E(xc)   XCENC  =      1996.79361945
  PAW double counting   =     58415.58015965   -63248.11684050
  entropy T*S    EENTRO =         0.00000000
  eigenvalues    EBANDS =     -3119.85644450
  atomic energy  EATOM  =     62592.10130960
  Solvation  Ediel_sol  =         0.00000000
  ---------------------------------------------------
  free energy    TOTEN  =      -134.93725754 eV

  energy without entropy =     -134.93725754  energy(sigma->0) =     -134.93725754


--------------------------------------------------------------------------------------------------------




----------------------------------------- Iteration    1(  20)  ---------------------------------------


    POTLOK:  cpu time    0.6557: real time    0.6564
    SETDIJ:  cpu time    0.0167: real time    0.0167
    EDDIAG:  cpu time    2.0673: real time    2.0702
  RMM-DIIS:  cpu time   16.7870: real time   16.8195
    ORTHCH:  cpu time    0.2744: real time    0.2747
       DOS:  cpu time    0.0002: real time    0.0002
    CHARGE:  cpu time    0.6349: real time    0.6358
    MIXING:  cpu time    0.0465: real time    0.0465
    --------------------------------------------
      LOOP:  cpu time   20.4873: real time   20.5273

 eigenvalue-minimisations  :  1473
 total energy-change (2. order) : 0.1902030E-05  (-0.1155622E-05)
 number of electron     494.9999952 magnetization       1.0019490
 augmentation part      316.9087980 magnetization       0.1158778

 Broyden mixing:
  rms(total) = 0.90715E-03    rms(broyden)= 0.90698E-03
  rms(prec ) = 0.99245E-03
  weight for this iteration     100.00

 eigenvalues of (default mixing * dielectric matrix)
  average eigenvalue GAMMA=   1.3477
  4.8402  3.3924  2.0985  1.6202  1.1749  1.0181  1.0181  1.0064  0.7794  0.7794
  0.6380  0.5620  0.3740  0.5059  0.4077

 Free energy of the ion-electron system (eV)
  ---------------------------------------------------
  alpha Z        PSCENC =       112.75413788
  Ewald energy   TEWEN  =    181793.16550924
  -Hartree energ DENC   =   -238677.35043143
  -exchange      EXHF   =         0.00000000
  -V(xc)+E(xc)   XCENC  =      1996.79480361
  PAW double counting   =     58415.17514807   -63247.68189175
  entropy T*S    EENTRO =         0.00000000
  eigenvalues    EBANDS =     -3119.89584085
  atomic energy  EATOM  =     62592.10130960
  Solvation  Ediel_sol  =         0.00000000
  ---------------------------------------------------
  free energy    TOTEN  =      -134.93725563 eV

  energy without entropy =     -134.93725563  energy(sigma->0) =     -134.93725563


--------------------------------------------------------------------------------------------------------




----------------------------------------- Iteration    1(  21)  ---------------------------------------


    POTLOK:  cpu time    0.6525: real time    0.6534
    SETDIJ:  cpu time    0.0158: real time    0.0158
    EDDIAG:  cpu time    2.0533: real time    2.0560
  RMM-DIIS:  cpu time   14.3924: real time   14.4132
    ORTHCH:  cpu time    0.2975: real time    0.2983
       DOS:  cpu time    0.0002: real time    0.0002
    CHARGE:  cpu time    0.6387: real time    0.6391
    MIXING:  cpu time    0.0500: real time    0.0501
    --------------------------------------------
      LOOP:  cpu time   18.1048: real time   18.1334

 eigenvalue-minimisations  :  1246
 total energy-change (2. order) : 0.1690591E-05  (-0.4228750E-06)
 number of electron     494.9999952 magnetization       1.0016512
 augmentation part      316.9077369 magnetization       0.1151589

 Broyden mixing:
  rms(total) = 0.59878E-03    rms(broyden)= 0.59859E-03
  rms(prec ) = 0.71527E-03
  weight for this iteration     100.00

 eigenvalues of (default mixing * dielectric matrix)
  average eigenvalue GAMMA=   1.3556
  4.8205  3.5819  2.4793  1.6670  1.2105  1.2105  1.0632  0.9361  0.9361  0.7508
  0.6760  0.3740  0.4076  0.5563  0.5389  0.4803

 Free energy of the ion-electron system (eV)
  ---------------------------------------------------
  alpha Z        PSCENC =       112.75413788
  Ewald energy   TEWEN  =    181793.16550924
  -Hartree energ DENC   =   -238677.36740306
  -exchange      EXHF   =         0.00000000
  -V(xc)+E(xc)   XCENC  =      1996.79816933
  PAW double counting   =     58414.67316820   -63247.15762536
  entropy T*S    EENTRO =         0.00000000
  eigenvalues    EBANDS =     -3119.90451978
  atomic energy  EATOM  =     62592.10130960
  Solvation  Ediel_sol  =         0.00000000
  ---------------------------------------------------
  free energy    TOTEN  =      -134.93725394 eV

  energy without entropy =     -134.93725394  energy(sigma->0) =     -134.93725394


--------------------------------------------------------------------------------------------------------




----------------------------------------- Iteration    1(  22)  ---------------------------------------


    POTLOK:  cpu time    0.6551: real time    0.6557
    SETDIJ:  cpu time    0.0160: real time    0.0160
    EDDIAG:  cpu time    2.0657: real time    2.0687
  RMM-DIIS:  cpu time   11.4568: real time   11.4734
    ORTHCH:  cpu time    0.2784: real time    0.2789
       DOS:  cpu time    0.0002: real time    0.0002
    --------------------------------------------
      LOOP:  cpu time   14.4761: real time   14.4997

 eigenvalue-minimisations  :   988
 total energy-change (2. order) :-0.3661262E-07  (-0.1911200E-06)
 number of electron     494.9999952 magnetization       1.0016512
 augmentation part      316.9077369 magnetization       0.1151589

 Free energy of the ion-electron system (eV)
  ---------------------------------------------------
  alpha Z        PSCENC =       112.75413788
  Ewald energy   TEWEN  =    181793.16550924
  -Hartree energ DENC   =   -238677.34229137
  -exchange      EXHF   =         0.00000000
  -V(xc)+E(xc)   XCENC  =      1996.79897062
  PAW double counting   =     58414.62104365   -63247.10385019
  entropy T*S    EENTRO =         0.00000000
  eigenvalues    EBANDS =     -3119.93208341
  atomic energy  EATOM  =     62592.10130960
  Solvation  Ediel_sol  =         0.00000000
  ---------------------------------------------------
  free energy    TOTEN  =      -134.93725398 eV

  energy without entropy =     -134.93725398  energy(sigma->0) =     -134.93725398


--------------------------------------------------------------------------------------------------------




 average (electrostatic) potential at core
  the test charge radii are     0.9430
  (the norm of the test charge is              1.0000)
       1 -75.0105       2 -74.5002       3 -74.6937       4 -75.1097       5 -75.1093
       6 -74.4962       7 -74.5666       8 -74.4960       9 -74.5019      10 -74.4125
      11 -74.4479      12 -74.6933      13 -74.6252      14 -74.6250      15 -74.5664
      16 -74.6195      17 -75.0100      18 -74.5054      19 -74.9293      20 -74.6671
      21 -74.4477      22 -74.4998      23 -74.5016      24 -74.6791      25 -74.5073
      26 -75.0225      27 -74.6252      28 -74.3779      29 -74.3781      30 -74.6675
      31 -74.5688      32 -75.0215      33 -75.3516      34 -74.4914      35 -74.6101
      36 -74.5593      37 -74.4406      38 -74.4143      39 -74.4402      40 -75.0210
      41 -74.6098      42 -74.4140      43 -74.5588      44 -74.4909      45 -74.5685
 
 
 
 E-fermi :  -3.5945     XC(G=0):  -0.9366     alpha+bet : -0.5432


 spin component 1

 k-point     1 :       0.0000    0.0000    0.0000
  band No.  band energies     occupation 
      1     -11.9986      1.00000
      2     -10.8726      1.00000
      3     -10.6099      1.00000
      4     -10.3497      1.00000
      5      -9.6320      1.00000
      6      -9.5238      1.00000
      7      -9.3676      1.00000
      8      -9.3084      1.00000
      9      -8.9117      1.00000
     10      -8.6400      1.00000
     11      -8.5403      1.00000
     12      -8.4327      1.00000
     13      -8.4274      1.00000
     14      -8.3916      1.00000
     15      -8.3399      1.00000
     16      -8.3196      1.00000
     17      -8.2912      1.00000
     18      -8.2671      1.00000
     19      -8.2170      1.00000
     20      -8.2038      1.00000
     21      -8.1369      1.00000
     22      -8.0261      1.00000
     23      -8.0209      1.00000
     24      -8.0132      1.00000
     25      -7.9562      1.00000
     26      -7.8643      1.00000
     27      -7.8392      1.00000
     28      -7.8319      1.00000
     29      -7.7644      1.00000
     30      -7.7409      1.00000
     31      -7.7007      1.00000
     32      -7.6871      1.00000
     33      -7.6479      1.00000
     34      -7.6447      1.00000
     35      -7.5652      1.00000
     36      -7.5532      1.00000
     37      -7.5316      1.00000
     38      -7.4675      1.00000
     39      -7.4169      1.00000
     40      -7.4011      1.00000
     41      -7.3905      1.00000
     42      -7.3572      1.00000
     43      -7.3414      1.00000
     44      -7.3128      1.00000
     45      -7.2910      1.00000
     46      -7.2393      1.00000
     47      -7.2115      1.00000
     48      -7.1933      1.00000
     49      -7.1896      1.00000
     50      -7.1328      1.00000
     51      -7.0787      1.00000
     52      -7.0709      1.00000
     53      -7.0440      1.00000
     54      -7.0385      1.00000
     55      -7.0318      1.00000
     56      -6.9767      1.00000
     57      -6.9669      1.00000
     58      -6.9531      1.00000
     59      -6.9464      1.00000
     60      -6.9399      1.00000
     61      -6.9123      1.00000
     62      -6.8662      1.00000
     63      -6.8642      1.00000
     64      -6.8456      1.00000
     65      -6.8391      1.00000
     66      -6.8160      1.00000
     67      -6.8133      1.00000
     68      -6.8019      1.00000
     69      -6.7824      1.00000
     70      -6.7723      1.00000
     71      -6.7655      1.00000
     72      -6.7526      1.00000
     73      -6.7333      1.00000
     74      -6.7182      1.00000
     75      -6.7142      1.00000
     76      -6.7027      1.00000
     77      -6.6970      1.00000
     78      -6.6827      1.00000
     79      -6.6682      1.00000
     80      -6.6535      1.00000
     81      -6.6495      1.00000
     82      -6.6208      1.00000
     83      -6.6179      1.00000
     84      -6.6034      1.00000
     85      -6.5699      1.00000
     86      -6.5679      1.00000
     87      -6.5327      1.00000
     88      -6.5299      1.00000
     89      -6.5114      1.00000
     90      -6.5007      1.00000
     91      -6.4848      1.00000
     92      -6.4691      1.00000
     93      -6.4596      1.00000
     94      -6.4449      1.00000
     95      -6.4308      1.00000
     96      -6.4224      1.00000
     97      -6.4156      1.00000
     98      -6.3894      1.00000
     99      -6.3728      1.00000
    100      -6.3689      1.00000
    101      -6.3566      1.00000
    102      -6.3430      1.00000
    103      -6.3054      1.00000
    104      -6.2922      1.00000
    105      -6.2840      1.00000
    106      -6.2598      1.00000
    107      -6.2592      1.00000
    108      -6.2128      1.00000
    109      -6.1985      1.00000
    110      -6.1947      1.00000
    111      -6.1682      1.00000
    112      -6.1676      1.00000
    113      -6.1515      1.00000
    114      -6.1480      1.00000
    115      -6.1323      1.00000
    116      -6.1302      1.00000
    117      -6.1204      1.00000
    118      -6.1076      1.00000
    119      -6.1045      1.00000
    120      -6.1035      1.00000
    121      -6.0798      1.00000
    122      -6.0764      1.00000
    123      -6.0638      1.00000
    124      -6.0617      1.00000
    125      -6.0521      1.00000
    126      -6.0391      1.00000
    127      -6.0378      1.00000
    128      -6.0156      1.00000
    129      -6.0082      1.00000
    130      -6.0063      1.00000
    131      -5.9960      1.00000
    132      -5.9748      1.00000
    133      -5.9519      1.00000
    134      -5.9407      1.00000
    135      -5.9402      1.00000
    136      -5.9197      1.00000
    137      -5.9123      1.00000
    138      -5.8832      1.00000
    139      -5.8807      1.00000
    140      -5.8458      1.00000
    141      -5.8454      1.00000
    142      -5.8319      1.00000
    143      -5.8268      1.00000
    144      -5.8012      1.00000
    145      -5.7983      1.00000
    146      -5.7754      1.00000
    147      -5.7708      1.00000
    148      -5.7524      1.00000
    149      -5.7289      1.00000
    150      -5.7260      1.00000
    151      -5.7102      1.00000
    152      -5.6947      1.00000
    153      -5.6887      1.00000
    154      -5.6829      1.00000
    155      -5.6694      1.00000
    156      -5.6641      1.00000
    157      -5.6591      1.00000
    158      -5.6426      1.00000
    159      -5.6341      1.00000
    160      -5.6326      1.00000
    161      -5.6189      1.00000
    162      -5.6134      1.00000
    163      -5.6039      1.00000
    164      -5.5949      1.00000
    165      -5.5866      1.00000
    166      -5.5824      1.00000
    167      -5.5726      1.00000
    168      -5.5672      1.00000
    169      -5.5619      1.00000
    170      -5.5520      1.00000
    171      -5.5442      1.00000
    172      -5.5395      1.00000
    173      -5.5224      1.00000
    174      -5.5157      1.00000
    175      -5.5097      1.00000
    176      -5.5012      1.00000
    177      -5.4954      1.00000
    178      -5.4885      1.00000
    179      -5.4816      1.00000
    180      -5.4788      1.00000
    181      -5.4665      1.00000
    182      -5.4616      1.00000
    183      -5.4526      1.00000
    184      -5.4394      1.00000
    185      -5.4363      1.00000
    186      -5.4201      1.00000
    187      -5.4185      1.00000
    188      -5.4105      1.00000
    189      -5.4046      1.00000
    190      -5.3916      1.00000
    191      -5.3901      1.00000
    192      -5.3868      1.00000
    193      -5.3757      1.00000
    194      -5.3704      1.00000
    195      -5.3659      1.00000
    196      -5.3533      1.00000
    197      -5.3509      1.00000
    198      -5.3455      1.00000
    199      -5.3422      1.00000
    200      -5.3327      1.00000
    201      -5.3195      1.00000
    202      -5.3115      1.00000
    203      -5.3072      1.00000
    204      -5.3006      1.00000
    205      -5.2967      1.00000
    206      -5.2936      1.00000
    207      -5.2934      1.00000
    208      -5.2889      1.00000
    209      -5.2855      1.00000
    210      -5.2819      1.00000
    211      -5.2741      1.00000
    212      -5.2571      1.00000
    213      -5.2546      1.00000
    214      -5.2529      1.00000
    215      -5.2457      1.00000
    216      -5.2441      1.00000
    217      -5.2419      1.00000
    218      -5.2376      1.00000
    219      -5.2341      1.00000
    220      -5.2205      1.00000
    221      -5.2111      1.00000
    222      -5.2100      1.00000
    223      -5.1765      1.00000
    224      -5.1715      1.00000
    225      -5.1437      1.00000
    226      -5.1411      1.00000
    227      -5.1395      1.00000
    228      -5.1387      1.00000
    229      -5.1290      1.00000
    230      -5.1211      1.00000
    231      -5.1173      1.00000
    232      -5.1027      1.00000
    233      -5.0941      1.00000
    234      -5.0385      1.00000
    235      -5.0354      1.00000
    236      -5.0128      1.00000
    237      -5.0025      1.00000
    238      -4.9087      1.00000
    239      -4.8863      1.00000
    240      -4.8547      1.00000
    241      -4.7079      1.00000
    242      -4.5220      1.00000
    243      -4.4741      1.00000
    244      -4.1292      1.00000
    245      -4.1028      1.00000
    246      -4.0023      1.00000
    247      -3.7437      1.00000
    248      -3.5985      1.00000
    249      -3.5445      0.00000
    250      -3.3961      0.00000
    251      -3.3764      0.00000
    252      -3.2483      0.00000
    253      -3.0536      0.00000
    254      -2.9709      0.00000
    255      -2.8681      0.00000
    256      -2.8095      0.00000
    257      -2.6057      0.00000
    258      -2.5415      0.00000
    259      -2.4555      0.00000
    260      -2.4386      0.00000
    261      -2.3837      0.00000
    262      -2.1387      0.00000
    263      -1.9255      0.00000
    264      -1.8172      0.00000
    265      -1.7462      0.00000
    266      -1.7239      0.00000
    267      -1.6679      0.00000
    268      -1.6563      0.00000
    269      -1.6012      0.00000
    270      -1.5709      0.00000
    271      -1.4389      0.00000
    272      -1.2626      0.00000
    273      -1.1935      0.00000
    274      -1.0721      0.00000
    275      -0.9486      0.00000
    276      -0.8674      0.00000
    277      -0.8197      0.00000
    278      -0.7184      0.00000
    279      -0.4512      0.00000
    280      -0.3821      0.00000
    281      -0.2993      0.00000
    282      -0.1120      0.00000
    283      -0.0200      0.00000
    284       0.2390      0.00000
    285       0.2579      0.00000
    286       0.2972      0.00000
    287       0.3656      0.00000
    288       0.3787      0.00000
    289       0.4514      0.00000
    290       0.4577      0.00000
    291       0.4578      0.00000
    292       0.5089      0.00000
    293       0.5390      0.00000
    294       0.5947      0.00000
    295       0.6078      0.00000
    296       0.6532      0.00000
    297       0.6696      0.00000
    298       0.6935      0.00000
    299       0.7290      0.00000
    300       0.7500      0.00000
    301       0.7531      0.00000
    302       0.7996      0.00000
    303       0.8273      0.00000
    304       0.8318      0.00000
    305       0.8492      0.00000
    306       0.8780      0.00000
    307       0.9068      0.00000
    308       0.9082      0.00000
    309       0.9987      0.00000
    310       1.0052      0.00000
    311       1.0213      0.00000
    312       1.0337      0.00000
    313       1.0409      0.00000
    314       1.0467      0.00000
    315       1.0533      0.00000
    316       1.0759      0.00000
    317       1.1041      0.00000
    318       1.1238      0.00000
    319       1.1276      0.00000
    320       1.1532      0.00000
    321       1.2351      0.00000
    322       1.2677      0.00000
    323       1.2707      0.00000
    324       1.3102      0.00000
    325       1.3366      0.00000
    326       1.3667      0.00000
    327       1.3670      0.00000
    328       1.4049      0.00000
    329       1.4188      0.00000
    330       1.4339      0.00000
    331       1.4679      0.00000
    332       1.5036      0.00000
    333       1.5154      0.00000
    334       1.5338      0.00000
    335       1.5564      0.00000
    336       1.5658      0.00000
    337       1.5779      0.00000
    338       1.6044      0.00000
    339       1.6046      0.00000
    340       1.6105      0.00000
    341       1.6231      0.00000
[...]
 21        0.012   0.001  -0.002   0.011
 22        0.001   0.001   0.008   0.010
 23        0.013   0.006  -0.002   0.016
 24       -0.000   0.003   0.001   0.004
 25       -0.001  -0.000   0.017   0.016
 26       -0.000  -0.001   0.021   0.019
 27       -0.001   0.000   0.001   0.001
 28        0.017   0.001  -0.002   0.016
 29        0.017   0.001  -0.002   0.016
 30        0.000   0.006  -0.002   0.005
 31        0.015   0.008  -0.003   0.020
 32        0.003  -0.000   0.010   0.013
 33       -0.001  -0.000   0.001   0.001
 34       -0.000   0.002   0.009   0.010
 35        0.001   0.001   0.012   0.014
 36       -0.000   0.004  -0.001   0.002
 37        0.007   0.009  -0.001   0.015
 38        0.006   0.009  -0.001   0.013
 39        0.007   0.009  -0.001   0.015
 40        0.003  -0.000   0.010   0.013
 41        0.001   0.001   0.012   0.014
 42        0.006   0.009  -0.001   0.013
 43       -0.000   0.004  -0.001   0.002
 44       -0.000   0.002   0.009   0.010
 45        0.015   0.008  -0.003   0.020
------------------------------------------------
tot        0.179   0.142   0.201   0.522
 
    CHARGE:  cpu time    0.6387: real time    0.6397
    FORLOC:  cpu time    0.0933: real time    0.0933
    FORNL :  cpu time   21.8462: real time   21.8972
    STRESS:  cpu time   23.4861: real time   23.5170
    FORCOR:  cpu time    0.7059: real time    0.7066
    FORHAR:  cpu time    0.1552: real time    0.1557
    MIXING:  cpu time    0.0347: real time    0.0347
    OFIELD:  cpu time    0.0001: real time    0.0001

  FORCE on cell =-STRESS in cart. coord.  units (eV):
  Direction    XX          YY          ZZ          XY          YZ          ZX
  --------------------------------------------------------------------------------------
  Alpha Z   112.75414   112.75414   112.75414
  Ewald   76934.80892 63769.79449 41145.44975     0.24235   187.37777    -0.21933
  Hartree 95207.60857 82489.15951 61037.34880     0.23860   170.66735    -0.16570
  E(xc)   -2889.30231 -2889.55791 -2890.83763    -0.00001     0.05572    -0.00003
  Local  ************************************    -0.48175  -359.37865     0.38313
  n-local -1039.47088 -1040.30652 -1045.93155    -0.00033     0.30069     0.00037
  augment  4235.35258  4236.62071  4241.46817     0.00051     0.61528     0.00005
  Kinetic  4051.35703  4052.64746  4058.48055     0.00029     0.49014     0.00040
  Fock        0.00000     0.00000     0.00000     0.00000     0.00000     0.00000
  -------------------------------------------------------------------------------------
  Total     -13.24913   -13.23767   -13.31923    -0.00035     0.12830    -0.00112
  in kB      -1.61619    -1.61479    -1.62474    -0.00004     0.01565    -0.00014
  external pressure =       -1.62 kB  Pullay stress =        0.00 kB


 VOLUME and BASIS-vectors are now :
 -----------------------------------------------------------------------------
  energy-cutoff  :      295.45
  volume of cell :    13134.23
      direct lattice vectors                 reciprocal lattice vectors
    23.594000669  0.000000000  0.000000000     0.042383656  0.000000000  0.000000000
     0.000000000 23.594000669  0.000000000     0.000000000  0.042383656  0.000000000
     0.000000000  0.000000000 23.594000669     0.000000000  0.000000000  0.042383656

  length of vectors
    23.594000669 23.594000669 23.594000669     0.042383656  0.042383656  0.042383656


 FORCES acting on ions
    electron-ion (+dipol)            ewald-force                    non-local-force                 convergence-correction
 -----------------------------------------------------------------------------------------------
   -.983E+03 -.825E+03 0.395E+03   0.981E+03 0.825E+03 -.394E+03   0.194E+01 0.759E+00 -.450E+00   0.341E-02 -.239E-02 0.462E-02
   -.199E+04 -.134E+04 0.177E+02   0.199E+04 0.134E+04 -.180E+02   0.636E+01 0.466E+01 0.311E+00   0.202E-02 -.189E-02 0.461E-03
   -.188E+04 -.682E+03 -.121E+04   0.188E+04 0.681E+03 0.121E+04   0.300E+01 0.917E+00 0.278E+01   0.343E-03 -.128E-02 -.345E-02
   -.674E+03 0.232E+02 -.935E+03   0.673E+03 -.232E+02 0.934E+03   0.479E+00 -.229E-01 0.147E+01   0.151E-01 0.250E-02 -.287E-02
   0.674E+03 0.232E+02 -.935E+03   -.673E+03 -.232E+02 0.934E+03   -.480E+00 -.229E-01 0.147E+01   0.477E-02 0.252E-02 0.182E-03
   -.631E+03 -.125E+04 -.198E+04   0.630E+03 0.124E+04 0.197E+04   0.194E+01 0.262E+01 0.327E+01   0.796E-02 -.969E-03 -.414E-02
   -.133E+04 0.209E+03 -.211E+04   0.132E+04 -.209E+03 0.210E+04   0.458E+01 -.533E+00 0.759E+01   0.433E-02 0.147E-02 -.814E-02
   0.631E+03 -.125E+04 -.198E+04   -.629E+03 0.124E+04 0.197E+04   -.194E+01 0.262E+01 0.327E+01   0.479E-02 0.194E-02 -.314E-03
   -.961E+03 -.197E+04 -.920E+03   0.959E+03 0.197E+04 0.918E+03   0.172E+01 0.516E+01 0.164E+01   0.165E-02 -.630E-03 0.505E-03
   -.277E-01 -.236E+04 0.379E+02   0.207E-01 0.235E+04 -.397E+02   -.493E-04 0.626E+01 0.178E+01   0.702E-02 0.134E-03 0.861E-03
   -.849E+03 -.198E+04 0.993E+03   0.848E+03 0.197E+04 -.989E+03   0.164E+01 0.524E+01 -.426E+01   0.243E-02 0.439E-03 0.245E-02
   0.188E+04 -.682E+03 -.121E+04   -.188E+04 0.681E+03 0.121E+04   -.300E+01 0.917E+00 0.278E+01   0.920E-03 0.375E-02 0.368E-02
   -.747E+03 0.143E+04 -.173E+04   0.745E+03 -.143E+04 0.173E+04   0.172E+01 -.182E+01 0.249E+01   0.805E-02 0.209E-02 -.153E-02
   0.747E+03 0.143E+04 -.173E+04   -.745E+03 -.143E+04 0.173E+04   -.172E+01 -.182E+01 0.249E+01   0.592E-02 -.111E-02 0.191E-02
   0.133E+04 0.209E+03 -.211E+04   -.132E+04 -.209E+03 0.210E+04   -.458E+01 -.533E+00 0.759E+01   0.141E-02 0.285E-03 0.338E-03
   -.393E-01 0.215E+03 -.236E+04   0.309E-01 -.214E+03 0.236E+04   -.135E-03 -.104E+01 0.204E+01   0.853E-02 0.137E-02 -.101E-02
   0.983E+03 -.825E+03 0.395E+03   -.981E+03 0.825E+03 -.394E+03   -.194E+01 0.759E+00 -.450E+00   0.103E-01 0.221E-02 0.347E-02
   0.283E-01 0.229E+04 -.914E+03   -.340E-01 -.229E+04 0.911E+03   -.373E-03 -.790E+01 0.291E+01   0.612E-02 0.384E-03 -.147E-03
   -.408E-01 -.139E+04 -.688E+03   0.307E-01 0.139E+04 0.688E+03   -.436E-03 0.659E+00 -.163E+00   0.106E-01 0.196E-02 0.122E-02
   0.192E+04 0.869E+03 -.101E+04   -.192E+04 -.868E+03 0.101E+04   -.374E+01 -.120E+01 0.179E+01   -.490E-03 0.482E-03 0.172E-02
   0.849E+03 -.198E+04 0.993E+03   -.847E+03 0.197E+04 -.989E+03   -.164E+01 0.524E+01 -.426E+01   0.560E-02 0.765E-02 -.290E-03
   0.199E+04 -.134E+04 0.177E+02   -.199E+04 0.134E+04 -.180E+02   -.636E+01 0.466E+01 0.311E+00   -.502E-02 0.753E-02 0.948E-03
   0.961E+03 -.197E+04 -.920E+03   -.959E+03 0.197E+04 0.918E+03   -.172E+01 0.516E+01 0.164E+01   0.666E-02 0.652E-02 0.329E-02
   0.246E-01 0.972E+03 0.194E+04   -.333E-01 -.970E+03 -.194E+04   -.533E-03 -.160E+01 -.311E+01   0.934E-02 -.188E-02 0.248E-02
   0.452E-01 0.223E+04 0.838E+03   -.518E-01 -.223E+04 -.836E+03   -.153E-03 -.489E+01 -.141E+01   0.693E-02 -.281E-03 0.251E-02
   -.444E-02 0.118E+04 -.208E+03   -.613E-02 -.118E+04 0.207E+03   -.476E-03 -.152E+01 0.989E+00   0.112E-01 -.100E-02 0.340E-02
   -.479E-01 -.146E+04 0.158E+04   0.390E-01 0.146E+04 -.157E+04   -.345E-03 0.216E+01 -.278E+01   0.929E-02 0.136E-02 0.540E-02
   0.878E+03 0.164E+04 0.152E+04   -.876E+03 -.163E+04 -.151E+04   -.168E+01 -.363E+01 -.490E+01   0.330E-02 -.590E-02 -.382E-02
   -.878E+03 0.164E+04 0.152E+04   0.876E+03 -.163E+04 -.151E+04   0.168E+01 -.363E+01 -.490E+01   0.705E-02 0.118E-02 0.143E-02
   -.192E+04 0.869E+03 -.101E+04   0.192E+04 -.868E+03 0.101E+04   0.374E+01 -.120E+01 0.179E+01   0.192E-02 0.461E-02 -.460E-02
   -.117E+04 0.201E+04 -.299E+03   0.117E+04 -.201E+04 0.299E+03   0.179E+01 -.360E+01 -.345E+00   0.510E-02 0.321E-02 0.162E-02
   -.101E+04 0.624E+03 0.613E+03   0.101E+04 -.624E+03 -.612E+03   0.173E+01 -.633E+00 -.376E+00   0.839E-02 0.349E-02 0.366E-02
   -.183E-01 -.147E+03 0.651E+03   0.602E-02 0.148E+03 -.651E+03   -.822E-03 -.226E+00 0.380E+00   0.130E-01 0.479E-02 0.668E-02
   -.202E+04 0.127E+04 0.365E+03   0.202E+04 -.126E+04 -.364E+03   0.650E+01 -.456E+01 -.983E+00   0.232E-02 0.345E-02 0.247E-02
   -.489E+03 -.297E+03 0.224E+04   0.487E+03 0.297E+03 -.223E+04   0.114E+01 0.570E+00 -.450E+01   0.797E-02 0.154E-02 0.762E-02
   -.229E+04 -.422E+02 0.187E+03   0.229E+04 0.418E+02 -.186E+03   0.347E+01 0.453E+00 -.781E+00   -.154E-02 0.211E-02 0.264E-02
   -.149E+04 0.423E+03 0.180E+04   0.149E+04 -.420E+03 -.179E+04   0.296E+01 -.341E+01 -.525E+01   0.370E-02 0.304E-02 0.521E-02
   -.147E+04 -.882E+03 0.163E+04   0.147E+04 0.879E+03 -.163E+04   0.329E+01 0.381E+01 -.372E+01   0.154E-02 -.281E-03 0.331E-02
   0.149E+04 0.423E+03 0.180E+04   -.149E+04 -.420E+03 -.179E+04   -.296E+01 -.341E+01 -.525E+01   -.181E-02 0.197E-03 -.393E-02
   0.101E+04 0.624E+03 0.613E+03   -.101E+04 -.624E+03 -.612E+03   -.173E+01 -.633E+00 -.376E+00   0.627E-02 0.395E-03 0.144E-02
   0.489E+03 -.297E+03 0.224E+04   -.487E+03 0.297E+03 -.223E+04   -.114E+01 0.570E+00 -.450E+01   0.821E-02 0.230E-02 0.226E-02
   0.147E+04 -.882E+03 0.163E+04   -.147E+04 0.879E+03 -.163E+04   -.329E+01 0.381E+01 -.372E+01   0.573E-03 0.572E-02 -.350E-02
   0.229E+04 -.423E+02 0.187E+03   -.229E+04 0.419E+02 -.186E+03   -.347E+01 0.453E+00 -.781E+00   -.313E-02 0.324E-02 0.205E-02
   0.202E+04 0.127E+04 0.365E+03   -.202E+04 -.126E+04 -.364E+03   -.650E+01 -.456E+01 -.983E+00   -.573E-02 -.482E-02 0.862E-04
   0.117E+04 0.201E+04 -.299E+03   -.117E+04 -.201E+04 0.299E+03   -.179E+01 -.360E+01 -.345E+00   0.556E-02 -.493E-02 0.256E-02
 -----------------------------------------------------------------------------------------------
   -.205E+00 -.139E+01 0.768E+01   0.000E+00 0.136E-11 0.324E-11   -.600E-02 0.147E+01 -.780E+01   0.212E+00 0.565E-01 0.448E-01
 
 
 POSITION                                       TOTAL-FORCE (eV/Angst)
 -----------------------------------------------------------------------------------
     13.86337     13.23912     11.27356         0.009530     -0.002302     -0.001954
     15.94362     14.43343     11.54098        -0.017795     -0.010478     -0.007132
     15.15179     12.98917     13.41157        -0.003273      0.002589      0.003894
     13.05459     11.73695     13.15889        -0.004322     -0.004114     -0.004797
     10.53945     11.73699     13.15894         0.004522     -0.004128     -0.004906
     13.04697     13.62458     14.80528        -0.002028     -0.016357     -0.003423
     14.25682     11.46155     15.22153        -0.007359      0.005774      0.014831
     10.54712     13.62463     14.80531         0.002001     -0.016382     -0.003402
     13.90523     15.11925     12.89237        -0.002465     -0.002892     -0.016828
     11.79705     16.07199     11.59333         0.000027     -0.008088     -0.010688
     13.94198     15.48015     10.42459         0.006652     -0.015015      0.010495
      8.44230     12.98926     13.41159         0.003129      0.002743      0.004058
     13.06662      9.47730     14.28214        -0.011799      0.005945      0.002716
     10.52735      9.47736     14.28222         0.011822      0.005814      0.002830
      9.33723     11.46164     15.22161         0.007383      0.005794      0.015020
     11.79703     11.47639     15.38053         0.000026      0.013143      0.009698
      9.73068     13.23916     11.27359        -0.009169     -0.002436     -0.001982
     11.79691      7.62128     13.18767         0.000097      0.002771     -0.001873
     11.79704     13.91714     12.67490         0.000064      0.006071      0.002905
      8.45303     10.42388     13.09946         0.001594     -0.005932      0.009581
      9.65217     15.48011     10.42450        -0.006591     -0.014802      0.010416
      7.65051     14.43353     11.54098         0.017468     -0.010271     -0.007124
      9.68892     15.11931     12.89236         0.002436     -0.002687     -0.016755
     11.79689     10.06579      9.50154         0.000075      0.000737     -0.005246
     11.79686      7.86760     10.65342         0.000126      0.013335     -0.003218
     11.79696      9.78047     12.13825         0.000122      0.016172      0.002713
     11.79708     14.21342     10.01516         0.000021      0.015755     -0.007969
      9.66149      8.72170      9.58650        -0.002578      0.010186      0.010638
     13.93228      8.72166      9.58644         0.002645      0.010257      0.010736
     15.14095     10.42372     13.09938        -0.001787     -0.005734      0.009433
     13.90185      8.43719     12.07921        -0.001427      0.004164     -0.015100
     13.85658     10.69298     10.95826        -0.006418      0.003367     -0.000576
     11.79700     11.98975     11.05335        -0.000042     -0.014587      0.008693
     15.92034      9.45693     10.93974        -0.017804     -0.002776     -0.001709
     13.10665     12.23816      9.01130        -0.003042      0.008929     -0.004262
     16.05741     11.94557     11.27028        -0.010411      0.002669     -0.009601
     15.28723     10.99742      9.04880        -0.009005      0.000040      0.005274
     15.27505     13.45480      9.32870         0.001546     -0.006669      0.010681
      8.30677     10.99746      9.04889         0.008837      0.000026      0.004954
      9.73736     10.69304     10.95833         0.006784      0.003430     -0.000517
     10.48737     12.23823      9.01131         0.003088      0.008936     -0.004400
      8.31900     13.45485      9.32874        -0.001706     -0.006601      0.010336
      7.53660     11.94570     11.27033         0.010083      0.002714     -0.009642
      7.67354      9.45709     10.93987         0.017544     -0.003046     -0.001746
      9.69199      8.43730     12.07931         0.001398      0.003938     -0.015052
 -----------------------------------------------------------------------------------
    total drift:                                0.000730      0.138689     -0.071840


--------------------------------------------------------------------------------------------------------



  FREE ENERGIE OF THE ION-ELECTRON SYSTEM (eV)
  ---------------------------------------------------
  free  energy   TOTEN  =      -134.94242505 eV

  energy  without entropy=     -134.94242505  energy(sigma->0) =     -134.94242505
 
 d Force = 0.7349456E-03[ 0.104E-03, 0.137E-02]  d Energy = 0.7533717E-03-0.184E-04
 d Force =-0.2789904E+02[-0.279E+02,-0.279E+02]  d Ewald  =-0.2789904E+02-0.619E-05


--------------------------------------------------------------------------------------------------------


    POTLOK:  cpu time    0.6916: real time    0.6925


--------------------------------------------------------------------------------------------------------




--------------------------------------------------------------------------------------------------------


  
 reached required accuracy - stopping structural energy minimisation
     LOOP+:  cpu time  323.3441: real time  324.2468
    4ORBIT:  cpu time    0.0000: real time    0.0000
 


 total charge     
 
# of ion     s       p       d       tot
----------------------------------------
  1        0.450   0.408   9.212  10.070
  2        0.475   0.200   9.244   9.919
  3        0.439   0.271   9.220   9.929
  4        0.452   0.406   9.202  10.060
  5        0.452   0.406   9.202  10.060
  6        0.448   0.230   9.227   9.906
  7        0.465   0.206   9.254   9.925
  8        0.448   0.230   9.227   9.906
  9        0.447   0.231   9.236   9.914
 10        0.476   0.195   9.231   9.903
 11        0.455   0.200   9.247   9.902
 12        0.439   0.271   9.220   9.929
 13        0.440   0.263   9.217   9.920
 14        0.440   0.263   9.217   9.920
 15        0.465   0.206   9.254   9.925
 16        0.460   0.258   9.198   9.916
 17        0.450   0.408   9.212  10.070
 18        0.464   0.206   9.247   9.917
 19        0.441   0.381   9.199  10.021
 20        0.443   0.272   9.215   9.930
 21        0.455   0.200   9.247   9.902
 22        0.475   0.200   9.244   9.919
 23        0.447   0.231   9.236   9.914
 24        0.425   0.289   9.213   9.927
 25        0.453   0.230   9.230   9.913
 26        0.453   0.403   9.209  10.065
 27        0.428   0.289   9.222   9.939
 28        0.464   0.190   9.246   9.900
 29        0.464   0.190   9.246   9.900
 30        0.443   0.272   9.215   9.930
 31        0.448   0.261   9.218   9.926
 32        0.448   0.408   9.209  10.066
 33        0.483   0.498   9.173  10.154
 34        0.476   0.203   9.241   9.919
 35        0.430   0.261   9.222   9.913
 36        0.452   0.254   9.217   9.923
 37        0.446   0.202   9.248   9.896
 38        0.456   0.200   9.242   9.898
 39        0.446   0.202   9.248   9.896
 40        0.448   0.408   9.209  10.066
 41        0.430   0.261   9.222   9.913
 42        0.457   0.200   9.242   9.898
 43        0.452   0.254   9.217   9.923
 44        0.476   0.203   9.241   9.920
 45        0.448   0.261   9.218   9.927
------------------------------------------------
tot       20.353  12.082 415.153 447.588
 


 magnetization (x)
 
# of ion     s       p       d       tot
----------------------------------------
  1        0.000  -0.000   0.012   0.012
  2        0.001   0.001   0.008   0.010
  3        0.000   0.007  -0.000   0.007
  4        0.001   0.000   0.005   0.006
  5        0.001   0.000   0.005   0.006
  6        0.008   0.005   0.009   0.021
  7        0.006  -0.000   0.007   0.013
  8        0.008   0.005   0.009   0.021
  9        0.013   0.006  -0.002   0.016
 10       -0.001  -0.000   0.007   0.006
 11        0.012   0.001  -0.002   0.011
 12        0.000   0.007  -0.000   0.007
 13        0.004   0.005   0.011   0.019
 14        0.004   0.005   0.011   0.019
 15        0.006  -0.000   0.007   0.013
 16       -0.001   0.001  -0.001  -0.000
 17        0.000  -0.000   0.012   0.012
 18        0.000   0.012   0.002   0.015
 19       -0.000   0.002   0.014   0.016
 20        0.000   0.006  -0.002   0.005
 21        0.012   0.001  -0.002   0.011
 22        0.001   0.001   0.008   0.010
 23        0.013   0.006  -0.002   0.016
 24       -0.000   0.003   0.001   0.004
 25       -0.001  -0.000   0.017   0.016
 26       -0.000  -0.001   0.021   0.019
 27       -0.001   0.000   0.001   0.001
 28        0.017   0.001  -0.002   0.016
 29        0.017   0.001  -0.002   0.016
 30        0.000   0.006  -0.002   0.005
 31        0.015   0.008  -0.003   0.020
 32        0.003  -0.000   0.010   0.013
 33       -0.001  -0.000   0.001   0.001
 34       -0.000   0.002   0.009   0.010
 35        0.001   0.001   0.012   0.014
 36       -0.000   0.004  -0.001   0.002
 37        0.007   0.009  -0.001   0.015
 38        0.006   0.009  -0.001   0.013
 39        0.007   0.009  -0.001   0.015
 40        0.003  -0.000   0.010   0.013
 41        0.001   0.001   0.012   0.014
 42        0.006   0.009  -0.001   0.013
 43       -0.000   0.004  -0.001   0.002
 44       -0.000   0.002   0.009   0.010
 45        0.015   0.008  -0.003   0.020
------------------------------------------------
tot        0.179   0.142   0.201   0.522
 

 total amount of memory used by VASP on root node   133846. kBytes
========================================================================

   base      :      30000. kBytes
   nonl-proj :      10903. kBytes
   fftplans  :      15678. kBytes
   grid      :      39776. kBytes
   one-center:        124. kBytes
   wavefun   :      37365. kBytes
 
  
  
 General timing and accounting informations for this job:
 ========================================================
  
                  Total CPU time used (sec):     1914.046
                            User time (sec):     1871.543
                          System time (sec):       42.503
                         Elapsed time (sec):     1921.355
  
                   Maximum memory used (kb):      219608.
                   Average memory used (kb):           0.
  
                          Minor page faults:      1658130
                          Major page faults:            0
                 Voluntary context switches:         3076
