 vasp.5.4.4.18Apr17-6-g9f103f2a35 (build Jan 23 2020 13:04:52) gamma-only       
  
 executed on           IFC91_ompi date 2020.12.30  14:31:30
 running on   44 total cores
 distrk:  each k-point on   44 cores,    1 groups
 distr:  one band on NCORES_PER_BAND=  11 cores,    4 groups


--------------------------------------------------------------------------------------------------------


 INCAR:
 POTCAR:    PAW_PBE Cu 22Jun2005                  
 POTCAR:    PAW_PBE Cu 22Jun2005                  
   VRHFIN =Cu: d10 p1                                                           
   LEXCH  = PE                                                                  
   EATOM  =  1390.9808 eV,  102.2342 Ry                                         
                                                                                
   TITEL  = PAW_PBE Cu 22Jun2005                                                
   LULTRA =        F    use ultrasoft PP ?                                      
   IUNSCR =        1    unscreen: 0-lin 1-nonlin 2-no                           
   RPACOR =    2.000    partial core radius                                     
   POMASS =   63.546; ZVAL   =   11.000    mass and valenz                      
   RCORE  =    2.300    outmost cutoff radius                                   
   RWIGS  =    2.200; RWIGS  =    1.164    wigner-seitz radius (au A)           
   ENMAX  =  295.446; ENMIN  =  221.585 eV                                      
   ICORE  =        3    local potential                                         
   LCOR   =        T    correct aug charges                                     
   LPAW   =        T    paw PP                                                  
   EAUG   =  586.980                                                            
   DEXC   =    0.000                                                            
   RMAX   =    2.344    core radius for proj-oper                               
   RAUG   =    1.300    factor for augmentation sphere                          
   RDEP   =    2.302    radius for radial grids                                 
   RDEPT  =    1.771    core radius for aug-charge                              
                                                                                
   Atomic configuration                                                         
    9 entries                                                                   
     n  l   j            E        occ.                                          
     1  0  0.50     -8850.2468   2.0000                                         
     2  0  0.50     -1062.3498   2.0000                                         
     2  1  1.50      -916.8226   6.0000                                         
     3  0  0.50      -114.6929   2.0000                                         
     3  1  1.50       -72.1325   6.0000                                         
     3  2  2.50        -5.0394  10.0000                                         
     4  0  0.50        -4.6097   1.0000                                         
     4  1  0.50        -4.0817   0.0000                                         
     4  3  2.50        -1.3606   0.0000                                         
   Description                                                                  
     l       E           TYP  RCUT    TYP  RCUT                                 
     2     -5.0393973     23  2.200                                             
     2     10.8846608     23  2.200                                             
     0     -4.6097109     23  2.200                                             
     0      8.2520465     23  2.200                                             
     1     -2.7211652     23  2.200                                             
     1     21.7055443     23  2.200                                             
     3      2.7211652     23  2.300                                             
  local pseudopotential read in
  partial core-charges read in
  partial kinetic energy density read in
  atomic valenz-charges read in
  non local Contribution for L=           2  read in
    real space projection operators read in
  non local Contribution for L=           2  read in
    real space projection operators read in
  non local Contribution for L=           0  read in
    real space projection operators read in
  non local Contribution for L=           0  read in
    real space projection operators read in
  non local Contribution for L=           1  read in
    real space projection operators read in
  non local Contribution for L=           1  read in
    real space projection operators read in
    PAW grid and wavefunctions read in
 
   number of l-projection  operators is LMAX  =           6
   number of lm-projection operators is LMMAX =          18
 

 ----------------------------------------------------------------------------- 
|                                                                             |
|  ADVICE TO THIS USER RUNNING 'VASP/VAMP'   (HEAR YOUR MASTER'S VOICE ...):  |
|                                                                             |
|      You have a (more or less) 'large supercell' and for larger cells       |
|      it might be more efficient to use real space projection opertators     |
|      So try LREAL= Auto  in the INCAR   file.                               |
|      Mind:          For very  accurate calculation you might also keep the  |
|      reciprocal projection scheme          (i.e. LREAL=.FALSE.)             |
|                                                                             |
 ----------------------------------------------------------------------------- 

  PAW_PBE Cu 22Jun2005                  :
 energy of atom  1       EATOM=-1390.9808
 kinetic energy error for atom=    0.0452 (will be added to EATOM!!)
 
 
 POSCAR: unknown system                          
  positions in direct lattice
  No initial velocities read in
 exchange correlation table for  LEXCH =        8
   RHO(1)=    0.500       N(1)  =     2000
   RHO(2)=  100.500       N(2)  =     4000
 


--------------------------------------------------------------------------------------------------------


 ion  position               nearest neighbor table
   1  0.596  0.552  0.627-   3 2.42   9 2.45   8 2.50  12 2.50   5 2.51   4 2.52   2 2.53  15 2.54

   2  0.658  0.526  0.536-   3 2.42  23 2.46  10 2.47   7 2.47   5 2.49   1 2.53  18 2.57  15 2.64

   3  0.661  0.466  0.626-   6 2.39   1 2.42   2 2.42  15 2.56   7 2.61   4 2.64
   4  0.555  0.459  0.676-  15 2.47  13 2.50   8 2.52   1 2.52  11 2.53   3 2.64   6 2.66
   5  0.599  0.620  0.538-   9 2.45  21 2.46   2 2.49  10 2.49  20 2.50  23 2.51   1 2.51  12 2.58

   6  0.612  0.372  0.619-   3 2.39  11 2.41  19 2.42  15 2.57   7 2.59   4 2.66
   7  0.653  0.417  0.521-  15 2.45  19 2.47   2 2.47  18 2.53  16 2.55   6 2.59   3 2.61
   8  0.494  0.553  0.672-  13 2.43  17 2.43  12 2.47   1 2.50   4 2.52   9 2.55  22 2.63
   9  0.541  0.646  0.627-  22 2.41   1 2.45   5 2.45  21 2.51   8 2.55  12 2.56
  10  0.658  0.592  0.449-  27 2.45  20 2.45  18 2.46   2 2.47   5 2.49  23 2.54
  11  0.505  0.379  0.614-   6 2.41  24 2.44  14 2.50  13 2.50  26 2.51   4 2.53  19 2.53  15 2.53

  12  0.505  0.559  0.563-  23 2.46   8 2.47  22 2.49   1 2.50  30 2.51  36 2.53  15 2.56   9 2.56
                             5 2.58  14 2.59  21 2.64
  13  0.444  0.457  0.665-   8 2.43  17 2.43  14 2.47  11 2.50   4 2.50  24 2.56  25 2.62
  14  0.451  0.457  0.555-  13 2.47  31 2.47  33 2.49  11 2.50  25 2.50  36 2.53  15 2.55  24 2.56
                            26 2.58  12 2.59  39 2.63
  15  0.564  0.462  0.566-   7 2.45   4 2.47  11 2.53   1 2.54  14 2.55  12 2.56   3 2.56  23 2.56
                            31 2.57   6 2.57   2 2.64  19 2.68
  16  0.604  0.389  0.422-  18 2.42  31 2.45  29 2.46  28 2.52  34 2.54   7 2.55  19 2.58
  17  0.386  0.549  0.661-   8 2.43  13 2.43  25 2.48  22 2.48  36 2.56
  18  0.652  0.484  0.430-  16 2.42  23 2.44  10 2.46  28 2.51  27 2.53   7 2.53   2 2.57
  19  0.566  0.350  0.524-   6 2.42  31 2.46   7 2.47  29 2.48  26 2.48  11 2.53  16 2.58  15 2.68

  20  0.560  0.639  0.436-  37 2.44  10 2.45  21 2.49   5 2.50  32 2.51  30 2.52  23 2.57  27 2.58

  21  0.502  0.670  0.525-  35 2.40   5 2.46  20 2.49   9 2.51  22 2.54  30 2.57  32 2.62  12 2.64

  22  0.436  0.632  0.609-   9 2.41  36 2.46  35 2.46  17 2.48  12 2.49  21 2.54   8 2.63
  23  0.566  0.532  0.477-  38 2.40  18 2.44   2 2.46  12 2.46   5 2.51  30 2.54  10 2.54  15 2.56
                            20 2.57  31 2.60  27 2.71
  24  0.397  0.371  0.607-  25 2.41  11 2.44  26 2.45  39 2.50  13 2.56  14 2.56
  25  0.349  0.467  0.598-  24 2.41  36 2.45  46 2.46  17 2.48  14 2.50  39 2.55  13 2.62
  26  0.456  0.348  0.519-  24 2.45  39 2.46  29 2.48  19 2.48  40 2.50  11 2.51  31 2.52  14 2.58

  27  0.599  0.559  0.363-  37 2.41  28 2.41  10 2.45  38 2.47  18 2.53  20 2.58  23 2.71  41 2.77

  28  0.605  0.456  0.333-  34 2.41  27 2.41  18 2.51  16 2.52  41 2.55  38 2.77
  29  0.516  0.323  0.429-  34 2.44  40 2.45  16 2.46  19 2.48  26 2.48  31 2.54
  30  0.466  0.582  0.461-  32 2.37  33 2.45  43 2.51  12 2.51  20 2.52  23 2.54  38 2.54  35 2.54
                            21 2.57  42 2.60  36 2.63  37 2.76
  31  0.514  0.429  0.469-  38 2.40  16 2.45  19 2.46  14 2.47  26 2.52  29 2.54  33 2.55  15 2.57
                            40 2.59  23 2.60  34 2.70
  32  0.457  0.678  0.418-  30 2.37  37 2.49  35 2.51  20 2.51  21 2.62
  33  0.417  0.486  0.454-  45 2.36  30 2.45  14 2.49  43 2.50  40 2.51  38 2.53  31 2.55  39 2.56
                            46 2.59  42 2.60  36 2.63  44 2.77
  34  0.516  0.400  0.352-  44 2.41  28 2.41  29 2.44  38 2.49  16 2.54  40 2.58  31 2.70  41 2.79

  35  0.397  0.658  0.510-  21 2.40  22 2.46  43 2.47  36 2.50  32 2.51  30 2.54
  36  0.393  0.553  0.548-  25 2.45  22 2.46  35 2.50  43 2.51  46 2.51  12 2.53  14 2.53  17 2.56
                            30 2.63  33 2.63
  37  0.505  0.608  0.347-  42 2.38  27 2.41  20 2.44  32 2.49  38 2.55  41 2.60  30 2.76
  38  0.508  0.503  0.392-  41 2.29  23 2.40  31 2.40  27 2.47  42 2.48  34 2.49  33 2.53  30 2.54
                            37 2.55  44 2.55  28 2.77
  39  0.361  0.401  0.506-  46 2.39  26 2.46  40 2.48  24 2.50  25 2.55  33 2.56  14 2.63  45 2.65

  40  0.423  0.380  0.418-  44 2.44  29 2.45  39 2.48  26 2.50  33 2.51  45 2.53  34 2.58  31 2.59

  41  0.514  0.508  0.290-  38 2.29  28 2.55  37 2.60  44 2.61  27 2.77  34 2.79
  42  0.415  0.554  0.361-  43 2.38  44 2.38  37 2.38  38 2.48  33 2.60  30 2.60
  43  0.356  0.579  0.446-  42 2.38  46 2.45  35 2.47  33 2.50  30 2.51  36 2.51
  44  0.423  0.452  0.336-  42 2.38  34 2.41  40 2.44  45 2.48  38 2.55  41 2.61  33 2.77
  45  0.334  0.448  0.401-  33 2.36  44 2.48  46 2.50  40 2.53  39 2.65
  46  0.311  0.495  0.500-  39 2.39  43 2.45  25 2.46  45 2.50  36 2.51  33 2.59
 
  LATTYP: Found a simple cubic cell.
 ALAT       =    22.4640270000
  
  Lattice vectors:
  
 A1 = (  22.4640270000,   0.0000000000,   0.0000000000)
 A2 = (   0.0000000000,  22.4640270000,   0.0000000000)
 A3 = (   0.0000000000,   0.0000000000,  22.4640270000)


Analysis of symmetry for initial positions (statically):
=====================================================================
 Subroutine PRICEL returns:
 Original cell was already a primitive cell.
 

 Routine SETGRP: Setting up the symmetry group for a 
 simple cubic supercell.


 Subroutine GETGRP returns: Found  1 space group operations
 (whereof  1 operations were pure point group operations)
 out of a pool of 48 trial point group operations.


The static configuration has the point symmetry C_1 .


Analysis of symmetry for dynamics (positions and initial velocities):
=====================================================================
 Subroutine PRICEL returns:
 Original cell was already a primitive cell.
 

 Routine SETGRP: Setting up the symmetry group for a 
 simple cubic supercell.


 Subroutine GETGRP returns: Found  1 space group operations
 (whereof  1 operations were pure point group operations)
 out of a pool of 48 trial point group operations.


The dynamic configuration has the point symmetry C_1 .


Analysis of structural, dynamic, and magnetic symmetry:
=====================================================================
 Subroutine PRICEL returns:
 Original cell was already a primitive cell.
 

 Routine SETGRP: Setting up the symmetry group for a 
 simple cubic supercell.


 Subroutine GETGRP returns: Found  1 space group operations
 (whereof  1 operations were pure point group operations)
 out of a pool of 48 trial point group operations.


The magnetic configuration has the point symmetry C_1 .


 Subroutine INISYM returns: Found  1 space group operations
 (whereof  1 operations are pure point group operations),
 and found     1 'primitive' translations

 
 
 KPOINTS: Gamma-point only                        
  k-points in reciprocal lattice
Space group operators:
 irot       det(A)        alpha          n_x          n_y          n_z        tau_x        tau_y        tau_z
    1     1.000000     0.000000     1.000000     0.000000     0.000000     0.000000     0.000000     0.000000


--------------------------------------------------------------------------------------------------------




 Dimension of arrays:
   k-points           NKPTS =      1   k-points in BZ     NKDIM =      1   number of bands    NBANDS=    372
   number of dos      NEDOS =    301   number of ions     NIONS =     46
   non local maximal  LDIM  =      6   non local SUM 2l+1 LMDIM =     18
   total plane-waves  NPLWV = 884736
   max r-space proj   IRMAX =      1   max aug-charges    IRDMAX=   2460
   dimension x,y,z NGX =    96 NGY =   96 NGZ =   96
   dimension x,y,z NGXF=   192 NGYF=  192 NGZF=  192
   support grid    NGXF=   192 NGYF=  192 NGZF=  192
   ions per type =              46
   NGX,Y,Z   is equivalent  to a cutoff of   7.10,  7.10,  7.10 a.u.
   NGXF,Y,Z  is equivalent  to a cutoff of  14.21, 14.21, 14.21 a.u.

 SYSTEM =  unknown system                          
 POSCAR =  unknown system                          

 Startparameter for this run:
   NWRITE =      2    write-flag & timer
   PREC   = normal    normal or accurate (medium, high low for compatibility)
   ISTART =      0    job   : 0-new  1-cont  2-samecut
   ICHARG =      2    charge: 1-file 2-atom 10-const
   ISPIN  =      2    spin polarized calculation?
   LNONCOLLINEAR =      F non collinear calculations
   LSORBIT =      F    spin-orbit coupling
   INIWAV =      1    electr: 0-lowe 1-rand  2-diag
   LASPH  =      F    aspherical Exc in radial PAW
   METAGGA=      F    non-selfconsistent MetaGGA calc.

 Electronic Relaxation 1
   ENCUT  =  295.4 eV  21.71 Ry    4.66 a.u.  31.48 31.48 31.48*2*pi/ulx,y,z
   ENINI  =  295.4     initial cutoff
   ENAUG  =  587.0 eV  augmentation charge cutoff
   NELM   =     60;   NELMIN=  2; NELMDL= -5     # of ELM steps 
   EDIFF  = 0.1E-04   stopping-criterion for ELM
   LREAL  =      F    real-space projection
   NLSPLINE    = F    spline interpolate recip. space projectors
   LCOMPAT=      F    compatible to vasp.4.4
   GGA_COMPAT  = T    GGA compatible to vasp.4.4-vasp.4.6
   LMAXPAW     = -100 max onsite density
   LMAXMIX     =    2 max onsite mixed and CHGCAR
   VOSKOWN=      0    Vosko Wilk Nusair interpolation
   ROPT   =    0.00000
 Ionic relaxation
   EDIFFG = -.1E+00   stopping-criterion for IOM
   NSW    =    101    number of steps for IOM
   NBLOCK =      1;   KBLOCK =    101    inner block; outer block 
   IBRION =      2    ionic relax: 0-MD 1-quasi-New 2-CG
   NFREE  =      1    steps in history (QN), initial steepest desc. (CG)
   ISIF   =      2    stress and relaxation
   IWAVPR =     11    prediction:  0-non 1-charg 2-wave 3-comb
   ISYM   =      2    0-nonsym 1-usesym 2-fastsym
   LCORR  =      T    Harris-Foulkes like correction to forces

   POTIM  = 0.5000    time-step for ionic-motion
   TEIN   =    0.0    initial temperature
   TEBEG  =    0.0;   TEEND  =   0.0 temperature during run
   SMASS  =  -3.00    Nose mass-parameter (am)
   estimated Nose-frequenzy (Omega)   =  0.10E-29 period in steps =****** mass=  -0.115E-25a.u.
   SCALEE = 1.0000    scale energy and forces
   NPACO  =    256;   APACO  = 16.0  distance and # of slots for P.C.
   PSTRESS=    0.0 pullay stress

  Mass of Ions in am
   POMASS =  63.55
  Ionic Valenz
   ZVAL   =  11.00
  Atomic Wigner-Seitz radii
   RWIGS  =  -1.00
  virtual crystal weights 
   VCA    =   1.00
   NELECT =     506.0000    total number of electrons
   NUPDOWN=      -1.0000    fix difference up-down

 DOS related values:
   EMIN   =  10.00;   EMAX   =-10.00  energy-range for DOS
   EFERMI =   0.00
   ISMEAR =     0;   SIGMA  =   0.00  broadening in eV -4-tet -1-fermi 0-gaus

 Electronic relaxation 2 (details)
   IALGO  =     38    algorithm
   LDIAG  =      T    sub-space diagonalisation (order eigenvalues)
   LSUBROT=      F    optimize rotation matrix (better conditioning)
   TURBO    =      0    0=normal 1=particle mesh
   IRESTART =      0    0=no restart 2=restart with 2 vectors
   NREBOOT  =      0    no. of reboots
   NMIN     =      0    reboot dimension
   EREF     =   0.00    reference energy to select bands
   IMIX   =      4    mixing-type and parameters
     AMIX     =   0.40;   BMIX     =  1.00
     AMIX_MAG =   1.60;   BMIX_MAG =  1.00
     AMIN     =   0.10
     WC   =   100.;   INIMIX=   1;  MIXPRE=   1;  MAXMIX= -45

 Intra band minimization:
   WEIMIN = 0.0010     energy-eigenvalue tresh-hold
   EBREAK =  0.67E-08  absolut break condition
   DEPER  =   0.30     relativ break condition  

   TIME   =   0.40     timestep for ELM

  volume/ion in A,a.u.               =     246.44      1663.04
  Fermi-wavevector in a.u.,A,eV,Ry     =   0.580725  1.097412  4.588454  0.337242
  Thomas-Fermi vector in A             =   1.624947
 
 Write flags
   LWAVE        =      F    write WAVECAR
   LDOWNSAMPLE  =      F    k-point downsampling of WAVECAR
   LCHARG       =      F    write CHGCAR
   LVTOT        =      F    write LOCPOT, total local potential
   LVHAR        =      F    write LOCPOT, Hartree potential only
   LELF         =      F    write electronic localiz. function (ELF)
   LORBIT       =     11    0 simple, 1 ext, 2 COOP (PROOUT), +10 PAW based schemes


 Dipole corrections
   LMONO  =      F    monopole corrections only (constant potential shift)
   LDIPOL =      F    correct potential (dipole corrections)
   IDIPOL =      0    1-x, 2-y, 3-z, 4-all directions 
   EPSILON=  1.0000000 bulk dielectric constant

 Exchange correlation treatment:
   GGA     =    PE    GGA type
   LEXCH   =     8    internal setting for exchange type
   VOSKOWN=      0    Vosko Wilk Nusair interpolation
   LHFCALC =     F    Hartree Fock is set to
   LHFONE  =     F    Hartree Fock one center treatment
   AEXX    =    0.0000 exact exchange contribution

 Linear response parameters
   LEPSILON=     F    determine dielectric tensor
   LRPA    =     F    only Hartree local field effects (RPA)
   LNABLA  =     F    use nabla operator in PAW spheres
   LVEL    =     F    velocity operator in full k-point grid
   LINTERFAST=   F  fast interpolation
   KINTER  =     0    interpolate to denser k-point grid
   CSHIFT  =0.1000    complex shift for real part using Kramers Kronig
   OMEGAMAX=  -1.0    maximum frequency
   DEG_THRESHOLD= 0.2000000E-02 threshold for treating states as degnerate
   RTIME   =   -0.100 relaxation time in fs
  (WPLASMAI=    0.000 imaginary part of plasma frequency in eV, 0.658/RTIME)
   DFIELD  = 0.0000000 0.0000000 0.0000000 field for delta impulse in time
 
 Orbital magnetization related:
   ORBITALMAG=     F  switch on orbital magnetization
   LCHIMAG   =     F  perturbation theory with respect to B field
   DQ        =  0.001000  dq finite difference perturbation B field
   LLRAUG    =     F  two centre corrections for induced B field



--------------------------------------------------------------------------------------------------------


 conjugate gradient relaxation of ions
 charge density and potential will be updated during run
 spin polarized calculation
 Variant of blocked Davidson
 Davidson routine will perform the subspace rotation
 perform sub-space diagonalisation
    after iterative eigenvector-optimisation
 modified Broyden-mixing scheme, WC =      100.0
 initial mixing is a Kerker type mixing with AMIX =  0.4000 and BMIX =      1.0000
 Hartree-type preconditioning will be used
 using additional bands          119
 reciprocal scheme for non local part
 use partial core corrections
 calculate Harris-corrections to forces 
   (improved forces if not selfconsistent)
 use gradient corrections 
 use of overlap-Matrix (Vanderbilt PP)
 Gauss-broadening in eV      SIGMA  =   0.00


--------------------------------------------------------------------------------------------------------


  energy-cutoff  :      295.45
  volume of cell :    11336.08
      direct lattice vectors                 reciprocal lattice vectors
    22.464027000  0.000000000  0.000000000     0.044515616  0.000000000  0.000000000
     0.000000000 22.464027000  0.000000000     0.000000000  0.044515616  0.000000000
     0.000000000  0.000000000 22.464027000     0.000000000  0.000000000  0.044515616

  length of vectors
    22.464027000 22.464027000 22.464027000     0.044515616  0.044515616  0.044515616


 
 k-points in units of 2pi/SCALE and weight: Gamma-point only                        
   0.00000000  0.00000000  0.00000000       1.000
 
 k-points in reciprocal lattice and weights: Gamma-point only                        
   0.00000000  0.00000000  0.00000000       1.000
 
 position of ions in fractional coordinates (direct lattice) 
   0.59587514  0.55150111  0.62701467
   0.65803604  0.52608186  0.53640958
   0.66107673  0.46597550  0.62574538
   0.55500914  0.45884891  0.67568895
   0.59885770  0.61963665  0.53824857
   0.61178257  0.37204934  0.61859832
   0.65277486  0.41733984  0.52071171
   0.49413548  0.55289700  0.67242734
   0.54106452  0.64579249  0.62716091
   0.65813968  0.59240609  0.44871668
   0.50485323  0.37887860  0.61420572
   0.50466162  0.55861146  0.56329332
   0.44417946  0.45733028  0.66484963
   0.45140721  0.45654636  0.55535324
   0.56423753  0.46172630  0.56611537
   0.60354187  0.38858115  0.42246100
   0.38642832  0.54894862  0.66139225
   0.65191663  0.48446358  0.43004463
   0.56579620  0.35035560  0.52381885
   0.56014235  0.63895216  0.43580479
   0.50231709  0.66975572  0.52534892
   0.43620185  0.63246259  0.60927312
   0.56640932  0.53229528  0.47659864
   0.39673287  0.37104328  0.60746106
   0.34921507  0.46667547  0.59815843
   0.45563219  0.34763691  0.51881034
   0.59909377  0.55853982  0.36344288
   0.60517751  0.45573067  0.33277701
   0.51553805  0.32348677  0.42949940
   0.46633083  0.58246908  0.46106776
   0.51388871  0.42949204  0.46876840
   0.45706323  0.67840317  0.41812039
   0.41651950  0.48587222  0.45445033
   0.51557804  0.40022704  0.35243016
   0.39727429  0.65765094  0.51015829
   0.39334911  0.55286788  0.54785801
   0.50507821  0.60803469  0.34738194
   0.50814015  0.50342965  0.39159519
   0.36058409  0.40105029  0.50648328
   0.42308665  0.38042409  0.41759725
   0.51401275  0.50772440  0.28994450
   0.41477264  0.55448223  0.36146419
   0.35588852  0.57854850  0.44593242
   0.42321166  0.45207270  0.33614429
   0.33402836  0.44778297  0.40143322
   0.31095926  0.49491870  0.49973970
 
 position of ions in cartesian coordinates  (Angst):
  13.38575523 12.38893583 14.08527448
  14.78213937 11.81791711 12.04991929
  14.85044551 10.46768621 14.05676111
  12.46774031 10.30759430 15.17869482
  13.45275554 13.91953444 12.09123041
  13.74310017  8.35772642 13.89620936
  14.66395208  9.37513343 11.69728191
  11.10027276 12.42029314 15.10542592
  12.15448799 14.50709993 14.08855962
  14.78446754 13.30782640 10.07998361
  11.34103659  8.51113910 13.79753388
  11.33673226 12.54866292 12.65383635
   9.97805938 10.27347976 14.93520004
  10.14042375 10.25586976 12.47547018
  12.67504711 10.37223207 12.71723096
  13.55798086  8.72909745  9.49017531
   8.68073621 12.33159662 14.85753336
  14.64467278 10.88300294  9.66053418
  12.71006111  7.87039766 11.76708079
  12.58305287 14.35343857  9.78993057
  11.28406467 15.04541058 11.80145232
   9.79885014 14.20765670 13.68672782
  12.72383426 11.95749554 10.70632472
   8.91221790  8.33512626 13.64602165
   7.84477676 10.48341036 13.43704712
  10.23533382  7.80932493 11.65456949
  13.45805862 12.54705360  8.16439067
  13.59472392 10.23754608  7.47551174
  11.58106067  7.26681554  9.64828612
  10.47566836 13.08460114 10.35743861
  11.54400986  9.64812078 10.53042599
  10.26748074 15.23966713  9.39266773
   9.35670529 10.91464667 10.20878448
  11.58195901  8.99071103  7.91700063
   8.92438038 14.77348847 11.46020960
   8.83620503 12.41963898 12.30709713
  11.34609055 13.65890769  7.80359728
  11.41487405 11.30905725  8.79680492
   8.10017073  9.00920454 11.37765408
   9.50422993  8.54585703  9.38091590
  11.54679629 11.40553463  6.51332108
   9.31746378 12.45590379  8.11994132
   7.99468932 12.99652912 10.01743792
   9.50703816 10.15537334  7.55115441
   7.50362210 10.05900873  9.01780669
   6.98539721 11.11786704 11.22616611
 


--------------------------------------------------------------------------------------------------------


 use parallel FFT for orbitals z direction half grid
 k-point  1 :   0.0000 0.0000 0.0000  plane waves:   65530

 maximum and minimum number of plane-waves per node :      5965     5950

 maximum number of plane-waves:     65530
 maximum index in each direction: 
   IXMAX=   31   IYMAX=   31   IZMAX=   31
   IXMIN=  -31   IYMIN=  -31   IZMIN=    0


 parallel 3D FFT for wavefunctions:
    minimum data exchange during FFTs selected (reduces bandwidth)
 parallel 3D FFT for charge:
    minimum data exchange during FFTs selected (reduces bandwidth)


 total amount of memory used by VASP MPI-rank0    81143. kBytes
=======================================================================

   base      :      30000. kBytes
   nonl-proj :       5251. kBytes
   fftplans  :       7877. kBytes
   grid      :      20041. kBytes
   one-center:         77. kBytes
   wavefun   :      17897. kBytes
 
     INWAV:  cpu time    0.0000: real time    0.0003
 Broyden mixing: mesh for mixing (old mesh)
   NGX = 63   NGY = 63   NGZ = 63
  (NGX  =192   NGY  =192   NGZ  =192)
  gives a total of 250047 points

 initial charge density was supplied:
 charge density of overlapping atoms calculated
 number of electron     506.0000000 magnetization     138.0000000
 keeping initial charge density in first step


--------------------------------------------------------------------------------------------------------


 Maximum index for augmentation-charges          204 (set IRDMAX)


--------------------------------------------------------------------------------------------------------


 First call to EWALD:  gamma=   0.079
 Maximum number of real-space cells 3x 3x 3
 Maximum number of reciprocal cells 3x 3x 3

    FEWALD:  cpu time    0.0000: real time    0.0017


--------------------------------------- Iteration      1(   1)  ---------------------------------------


    POTLOK:  cpu time    0.3480: real time    0.3553
    SETDIJ:  cpu time    0.0120: real time    0.0122
     EDDAV:  cpu time   10.8040: real time   10.8090
       DOS:  cpu time    0.0000: real time    0.0004
    --------------------------------------------
      LOOP:  cpu time   11.1640: real time   11.1769

 eigenvalue-minimisations  :  1584
 total energy-change (2. order) : 0.3299634E+04  (-0.1236329E+05)
 number of electron     506.0000000 magnetization     138.0000000
 augmentation part      506.0000000 magnetization     138.0000000

 Free energy of the ion-electron system (eV)
  ---------------------------------------------------
  alpha Z        PSCENC =       136.51018317
  Ewald energy   TEWEN  =    177763.45105662
  -Hartree energ DENC   =   -236226.06098647
  -exchange      EXHF   =         0.00000000
  -V(xc)+E(xc)   XCENC  =      2125.85439438
  PAW double counting   =     56451.99027093   -61313.21033541
  entropy T*S    EENTRO =         0.00000000
  eigenvalues    EBANDS =       378.06231767
  atomic energy  EATOM  =     63983.03689426
  Solvation  Ediel_sol  =         0.00000000
  ---------------------------------------------------
  free energy    TOTEN  =      3299.63379516 eV

  energy without entropy =     3299.63379516  energy(sigma->0) =     3299.63379516


--------------------------------------------------------------------------------------------------------




--------------------------------------- Iteration      1(   2)  ---------------------------------------


     EDDAV:  cpu time   10.7000: real time   10.7119
       DOS:  cpu time    0.0000: real time    0.0004
    --------------------------------------------
      LOOP:  cpu time   10.7000: real time   10.7123

 eigenvalue-minimisations  :  1564
 total energy-change (2. order) :-0.3224545E+04  (-0.2994784E+04)
 number of electron     506.0000000 magnetization     138.0000000
 augmentation part      506.0000000 magnetization     138.0000000

 Free energy of the ion-electron system (eV)
  ---------------------------------------------------
  alpha Z        PSCENC =       136.51018317
  Ewald energy   TEWEN  =    177763.45105662
  -Hartree energ DENC   =   -236226.06098647
  -exchange      EXHF   =         0.00000000
  -V(xc)+E(xc)   XCENC  =      2125.85439438
  PAW double counting   =     56451.99027093   -61313.21033541
  entropy T*S    EENTRO =         0.00000000
  eigenvalues    EBANDS =     -2846.48298753
  atomic energy  EATOM  =     63983.03689426
  Solvation  Ediel_sol  =         0.00000000
  ---------------------------------------------------
  free energy    TOTEN  =        75.08848995 eV

  energy without entropy =       75.08848995  energy(sigma->0) =       75.08848995


--------------------------------------------------------------------------------------------------------




--------------------------------------- Iteration      1(   3)  ---------------------------------------


     EDDAV:  cpu time   12.0760: real time   12.0778
       DOS:  cpu time    0.0040: real time    0.0004
    --------------------------------------------
      LOOP:  cpu time   12.0800: real time   12.0782

 eigenvalue-minimisations  :  1824
 total energy-change (2. order) :-0.1689173E+03  (-0.1589236E+03)
 number of electron     506.0000000 magnetization     138.0000000
 augmentation part      506.0000000 magnetization     138.0000000

 Free energy of the ion-electron system (eV)
  ---------------------------------------------------
  alpha Z        PSCENC =       136.51018317
  Ewald energy   TEWEN  =    177763.45105662
  -Hartree energ DENC   =   -236226.06098647
  -exchange      EXHF   =         0.00000000
  -V(xc)+E(xc)   XCENC  =      2125.85439438
  PAW double counting   =     56451.99027093   -61313.21033541
  entropy T*S    EENTRO =         0.00000000
  eigenvalues    EBANDS =     -3015.40030162
  atomic energy  EATOM  =     63983.03689426
  Solvation  Ediel_sol  =         0.00000000
  ---------------------------------------------------
  free energy    TOTEN  =       -93.82882414 eV

  energy without entropy =      -93.82882414  energy(sigma->0) =      -93.82882414


--------------------------------------------------------------------------------------------------------




--------------------------------------- Iteration      1(   4)  ---------------------------------------


     EDDAV:  cpu time   12.1000: real time   12.1168
       DOS:  cpu time    0.0000: real time    0.0004
    --------------------------------------------
      LOOP:  cpu time   12.1000: real time   12.1172

 eigenvalue-minimisations  :  1832
 total energy-change (2. order) :-0.7742985E+01  (-0.7532080E+01)
 number of electron     506.0000000 magnetization     138.0000000
 augmentation part      506.0000000 magnetization     138.0000000

 Free energy of the ion-electron system (eV)
  ---------------------------------------------------
  alpha Z        PSCENC =       136.51018317
  Ewald energy   TEWEN  =    177763.45105662
  -Hartree energ DENC   =   -236226.06098647
  -exchange      EXHF   =         0.00000000
  -V(xc)+E(xc)   XCENC  =      2125.85439438
  PAW double counting   =     56451.99027093   -61313.21033541
  entropy T*S    EENTRO =         0.00000000
  eigenvalues    EBANDS =     -3023.14328700
  atomic energy  EATOM  =     63983.03689426
  Solvation  Ediel_sol  =         0.00000000
  ---------------------------------------------------
  free energy    TOTEN  =      -101.57180952 eV

  energy without entropy =     -101.57180952  energy(sigma->0) =     -101.57180952


--------------------------------------------------------------------------------------------------------




--------------------------------------- Iteration      1(   5)  ---------------------------------------


     EDDAV:  cpu time   12.0520: real time   12.0606
       DOS:  cpu time    0.0000: real time    0.0007
    CHARGE:  cpu time    0.2000: real time    0.1984
    MIXING:  cpu time    0.0080: real time    0.0088
    --------------------------------------------
      LOOP:  cpu time   12.2600: real time   12.2685

 eigenvalue-minimisations  :  1824
 total energy-change (2. order) :-0.2573783E+00  (-0.2565380E+00)
 number of electron     506.0000265 magnetization     124.9979964
 augmentation part      297.5825839 magnetization     121.2616980

 Broyden mixing:
  rms(total) = 0.12237E+02    rms(broyden)= 0.12235E+02
  rms(prec ) = 0.12376E+02
  weight for this iteration     100.00

 Free energy of the ion-electron system (eV)
  ---------------------------------------------------
  alpha Z        PSCENC =       136.51018317
  Ewald energy   TEWEN  =    177763.45105662
  -Hartree energ DENC   =   -236226.06098647
  -exchange      EXHF   =         0.00000000
  -V(xc)+E(xc)   XCENC  =      2125.85439438
  PAW double counting   =     56451.99027093   -61313.21033541
  entropy T*S    EENTRO =         0.00000000
  eigenvalues    EBANDS =     -3023.40066533
  atomic energy  EATOM  =     63983.03689426
  Solvation  Ediel_sol  =         0.00000000
  ---------------------------------------------------
  free energy    TOTEN  =      -101.82918785 eV

  energy without entropy =     -101.82918785  energy(sigma->0) =     -101.82918785


--------------------------------------------------------------------------------------------------------




--------------------------------------- Iteration      1(   6)  ---------------------------------------


    POTLOK:  cpu time    0.3280: real time    0.3434
    SETDIJ:  cpu time    0.0120: real time    0.0123
     EDDAV:  cpu time   11.0000: real time   10.9966
       DOS:  cpu time    0.0000: real time    0.0007
    CHARGE:  cpu time    0.2000: real time    0.1990
    MIXING:  cpu time    0.0080: real time    0.0093
    --------------------------------------------
      LOOP:  cpu time   11.5480: real time   11.5613

 eigenvalue-minimisations  :  1620
 total energy-change (2. order) : 0.2922559E+03  (-0.1797045E+03)
 number of electron     506.0000340 magnetization     116.2058652
 augmentation part      348.8323238 magnetization      75.1134051

 Broyden mixing:
  rms(total) = 0.59567E+01    rms(broyden)= 0.59538E+01
  rms(prec ) = 0.61737E+01
  weight for this iteration     100.00

 eigenvalues of (default mixing * dielectric matrix)
  average eigenvalue GAMMA=   0.9331
  0.9331

 Free energy of the ion-electron system (eV)
  ---------------------------------------------------
  alpha Z        PSCENC =       136.51018317
  Ewald energy   TEWEN  =    177763.45105662
  -Hartree energ DENC   =   -234850.39937087
  -exchange      EXHF   =         0.00000000
  -V(xc)+E(xc)   XCENC  =      2267.84412313
  PAW double counting   =     56653.71341486   -61261.43109985
  entropy T*S    EENTRO =         0.00000000
  eigenvalues    EBANDS =     -4502.29852439
  atomic energy  EATOM  =     63983.03689426
  Solvation  Ediel_sol  =         0.00000000
  ---------------------------------------------------
  free energy    TOTEN  =       190.42667694 eV

  energy without entropy =      190.42667694  energy(sigma->0) =      190.42667694


--------------------------------------------------------------------------------------------------------




--------------------------------------- Iteration      1(   7)  ---------------------------------------


    POTLOK:  cpu time    0.3280: real time    0.3590
    SETDIJ:  cpu time    0.0120: real time    0.0119
     EDDAV:  cpu time   11.5320: real time   11.5339
       DOS:  cpu time    0.0000: real time    0.0006
    CHARGE:  cpu time    0.2000: real time    0.1992
    MIXING:  cpu time    0.0120: real time    0.0096
    --------------------------------------------
      LOOP:  cpu time   12.0840: real time   12.1141

 eigenvalue-minimisations  :  1720
 total energy-change (2. order) : 0.9344707E+01  (-0.7015464E+02)
 number of electron     506.0000286 magnetization     105.8104730
 augmentation part      327.0202020 magnetization      63.7423219

 Broyden mixing:
  rms(total) = 0.31508E+01    rms(broyden)= 0.31496E+01
  rms(prec ) = 0.31996E+01
  weight for this iteration     100.00

 eigenvalues of (default mixing * dielectric matrix)
  average eigenvalue GAMMA=   0.8725
  1.0582  0.6869

 Free energy of the ion-electron system (eV)
  ---------------------------------------------------
  alpha Z        PSCENC =       136.51018317
  Ewald energy   TEWEN  =    177763.45105662
  -Hartree energ DENC   =   -235934.51805768
  -exchange      EXHF   =         0.00000000
  -V(xc)+E(xc)   XCENC  =      2298.11628903
  PAW double counting   =     58357.29240798   -63362.08960730
  entropy T*S    EENTRO =         0.00000000
  eigenvalues    EBANDS =     -3042.02778231
  atomic energy  EATOM  =     63983.03689426
  Solvation  Ediel_sol  =         0.00000000
  ---------------------------------------------------
  free energy    TOTEN  =       199.77138377 eV

  energy without entropy =      199.77138377  energy(sigma->0) =      199.77138377


--------------------------------------------------------------------------------------------------------




--------------------------------------- Iteration      1(   8)  ---------------------------------------


    POTLOK:  cpu time    0.3280: real time    0.3363
    SETDIJ:  cpu time    0.0120: real time    0.0121
     EDDAV:  cpu time   13.1640: real time   13.1639
       DOS:  cpu time    0.0000: real time    0.0006
    CHARGE:  cpu time    0.1960: real time    0.1985
    MIXING:  cpu time    0.0120: real time    0.0099
    --------------------------------------------
      LOOP:  cpu time   13.7120: real time   13.7214

 eigenvalue-minimisations  :  2032
 total energy-change (2. order) : 0.1281360E+02  (-0.1181309E+02)
 number of electron     506.0000326 magnetization      99.3674450
 augmentation part      322.7206925 magnetization      56.5834474

 Broyden mixing:
  rms(total) = 0.30135E+01    rms(broyden)= 0.30129E+01
  rms(prec ) = 0.31127E+01
  weight for this iteration     100.00

 eigenvalues of (default mixing * dielectric matrix)
  average eigenvalue GAMMA=   0.7774
  1.1343  0.6964  0.5014

 Free energy of the ion-electron system (eV)
  ---------------------------------------------------
  alpha Z        PSCENC =       136.51018317
  Ewald energy   TEWEN  =    177763.45105662
  -Hartree energ DENC   =   -236149.38499192
  -exchange      EXHF   =         0.00000000
  -V(xc)+E(xc)   XCENC  =      2312.10460683
  PAW double counting   =     59348.34090192   -64384.71093444
  entropy T*S    EENTRO =         0.00000000
  eigenvalues    EBANDS =     -2796.76272769
  atomic energy  EATOM  =     63983.03689426
  Solvation  Ediel_sol  =         0.00000000
  ---------------------------------------------------
  free energy    TOTEN  =       212.58498875 eV

  energy without entropy =      212.58498875  energy(sigma->0) =      212.58498875


--------------------------------------------------------------------------------------------------------




--------------------------------------- Iteration      1(   9)  ---------------------------------------


    POTLOK:  cpu time    0.3280: real time    0.3425
    SETDIJ:  cpu time    0.0120: real time    0.0120
     EDDAV:  cpu time   12.8200: real time   12.8225
       DOS:  cpu time    0.0040: real time    0.0007
    CHARGE:  cpu time    0.1960: real time    0.1986
    MIXING:  cpu time    0.0120: real time    0.0103
    --------------------------------------------
      LOOP:  cpu time   13.3720: real time   13.3866

 eigenvalue-minimisations  :  1968
 total energy-change (2. order) :-0.1559324E+02  (-0.3306203E+01)
 number of electron     506.0000293 magnetization      80.9802482
 augmentation part      324.1204018 magnetization      40.5446301

 Broyden mixing:
  rms(total) = 0.22090E+01    rms(broyden)= 0.22085E+01
  rms(prec ) = 0.22482E+01
  weight for this iteration     100.00

 eigenvalues of (default mixing * dielectric matrix)
  average eigenvalue GAMMA=   0.9283
  1.4824  1.0703  0.7558  0.4045

 Free energy of the ion-electron system (eV)
  ---------------------------------------------------
  alpha Z        PSCENC =       136.51018317
  Ewald energy   TEWEN  =    177763.45105662
  -Hartree energ DENC   =   -236083.32417111
  -exchange      EXHF   =         0.00000000
  -V(xc)+E(xc)   XCENC  =      2296.31301276
  PAW double counting   =     59629.97822909   -64647.09681909
  entropy T*S    EENTRO =         0.00000000
  eigenvalues    EBANDS =     -2881.87663427
  atomic energy  EATOM  =     63983.03689426
  Solvation  Ediel_sol  =         0.00000000
  ---------------------------------------------------
  free energy    TOTEN  =       196.99175143 eV

  energy without entropy =      196.99175143  energy(sigma->0) =      196.99175143


--------------------------------------------------------------------------------------------------------




--------------------------------------- Iteration      1(  10)  ---------------------------------------


    POTLOK:  cpu time    0.3360: real time    0.3412
    SETDIJ:  cpu time    0.0120: real time    0.0120
     EDDAV:  cpu time   14.4400: real time   14.4406
       DOS:  cpu time    0.0000: real time    0.0007
    CHARGE:  cpu time    0.2000: real time    0.1984
    MIXING:  cpu time    0.0120: real time    0.0108
    --------------------------------------------
      LOOP:  cpu time   15.0000: real time   15.0036

 eigenvalue-minimisations  :  2272
 total energy-change (2. order) :-0.8168506E+02  (-0.4350157E+01)
 number of electron     506.0000306 magnetization      65.6155559
 augmentation part      325.7874725 magnetization      29.5905883

 Broyden mixing:
  rms(total) = 0.16612E+01    rms(broyden)= 0.16608E+01
  rms(prec ) = 0.16913E+01
  weight for this iteration     100.00

 eigenvalues of (default mixing * dielectric matrix)
  average eigenvalue GAMMA=   1.1270
  2.7232  1.2354  0.6490  0.6490  0.3783

 Free energy of the ion-electron system (eV)
  ---------------------------------------------------
  alpha Z        PSCENC =       136.51018317
  Ewald energy   TEWEN  =    177763.45105662
  -Hartree energ DENC   =   -236114.68426087
  -exchange      EXHF   =         0.00000000
  -V(xc)+E(xc)   XCENC  =      2230.83222436
  PAW double counting   =     60152.57052482   -65119.26183424
  entropy T*S    EENTRO =         0.00000000
  eigenvalues    EBANDS =     -2917.14809749
  atomic energy  EATOM  =     63983.03689426
  Solvation  Ediel_sol  =         0.00000000
  ---------------------------------------------------
  free energy    TOTEN  =       115.30669063 eV

  energy without entropy =      115.30669063  energy(sigma->0) =      115.30669063


--------------------------------------------------------------------------------------------------------




--------------------------------------- Iteration      1(  11)  ---------------------------------------


    POTLOK:  cpu time    0.3280: real time    0.3390
    SETDIJ:  cpu time    0.0120: real time    0.0119
     EDDAV:  cpu time   12.5200: real time   12.5183
       DOS:  cpu time    0.0000: real time    0.0006
    CHARGE:  cpu time    0.2000: real time    0.1996
    MIXING:  cpu time    0.0080: real time    0.0113
    --------------------------------------------
      LOOP:  cpu time   13.0680: real time   13.0807

 eigenvalue-minimisations  :  1912
 total energy-change (2. order) :-0.4229660E+02  (-0.3532777E+01)
 number of electron     506.0000295 magnetization      55.6438709
 augmentation part      327.7334150 magnetization      28.7249685

 Broyden mixing:
  rms(total) = 0.14166E+01    rms(broyden)= 0.14158E+01
  rms(prec ) = 0.14538E+01
  weight for this iteration     100.00

 eigenvalues of (default mixing * dielectric matrix)
  average eigenvalue GAMMA=   1.1198
  3.3510  1.1657  0.6448  0.6448  0.5324  0.3800

 Free energy of the ion-electron system (eV)
  ---------------------------------------------------
  alpha Z        PSCENC =       136.51018317
  Ewald energy   TEWEN  =    177763.45105662
  -Hartree energ DENC   =   -236120.56899613
  -exchange      EXHF   =         0.00000000
  -V(xc)+E(xc)   XCENC  =      2198.66659171
  PAW double counting   =     60372.05962592   -65310.60558219
  entropy T*S    EENTRO =         0.00000000
  eigenvalues    EBANDS =     -2949.53968297
  atomic energy  EATOM  =     63983.03689426
  Solvation  Ediel_sol  =         0.00000000
  ---------------------------------------------------
  free energy    TOTEN  =        73.01009040 eV

  energy without entropy =       73.01009040  energy(sigma->0) =       73.01009040


--------------------------------------------------------------------------------------------------------




--------------------------------------- Iteration      1(  12)  ---------------------------------------


    POTLOK:  cpu time    0.3360: real time    0.3412
    SETDIJ:  cpu time    0.0120: real time    0.0119
     EDDAV:  cpu time   12.1400: real time   12.1366
       DOS:  cpu time    0.0000: real time    0.0006
    CHARGE:  cpu time    0.2000: real time    0.1997
    MIXING:  cpu time    0.0120: real time    0.0118
    --------------------------------------------
      LOOP:  cpu time   12.7000: real time   12.7017

 eigenvalue-minimisations  :  1840
 total energy-change (2. order) :-0.1818889E+02  (-0.1890471E+01)
 number of electron     506.0000299 magnetization      44.0125643
 augmentation part      326.7229359 magnetization      20.1430147

 Broyden mixing:
  rms(total) = 0.11189E+01    rms(broyden)= 0.11187E+01
  rms(prec ) = 0.11456E+01
  weight for this iteration     100.00

 eigenvalues of (default mixing * dielectric matrix)
  average eigenvalue GAMMA=   1.2616
  4.3763  1.1148  0.9186  0.9186  0.6972  0.4027  0.4027

 Free energy of the ion-electron system (eV)
  ---------------------------------------------------
  alpha Z        PSCENC =       136.51018317
  Ewald energy   TEWEN  =    177763.45105662
  -Hartree energ DENC   =   -236215.82346033
  -exchange      EXHF   =         0.00000000
  -V(xc)+E(xc)   XCENC  =      2188.47085884
  PAW double counting   =     60511.34539335   -65462.21037356
  entropy T*S    EENTRO =         0.00000000
  eigenvalues    EBANDS =     -2849.95935145
  atomic energy  EATOM  =     63983.03689426
  Solvation  Ediel_sol  =         0.00000000
  ---------------------------------------------------
  free energy    TOTEN  =        54.82120089 eV

  energy without entropy =       54.82120089  energy(sigma->0) =       54.82120089


--------------------------------------------------------------------------------------------------------




--------------------------------------- Iteration      1(  13)  ---------------------------------------


    POTLOK:  cpu time    0.3240: real time    0.3415
    SETDIJ:  cpu time    0.0120: real time    0.0118
     EDDAV:  cpu time   12.1600: real time   12.1595
       DOS:  cpu time    0.0040: real time    0.0007
    CHARGE:  cpu time    0.2000: real time    0.2006
    MIXING:  cpu time    0.0120: real time    0.0123
    --------------------------------------------
      LOOP:  cpu time   12.7120: real time   12.7263

 eigenvalue-minimisations  :  1840
 total energy-change (2. order) :-0.4162915E+02  (-0.3012962E+01)
 number of electron     506.0000290 magnetization      32.5185181
 augmentation part      324.3753173 magnetization      12.1653478

 Broyden mixing:
  rms(total) = 0.93347E+00    rms(broyden)= 0.93311E+00
  rms(prec ) = 0.95685E+00
  weight for this iteration     100.00

 eigenvalues of (default mixing * dielectric matrix)
  average eigenvalue GAMMA=   1.3321
  5.1739  1.6431  0.8801  0.8162  0.8162  0.5285  0.4291  0.3699

 Free energy of the ion-electron system (eV)
  ---------------------------------------------------
  alpha Z        PSCENC =       136.51018317
  Ewald energy   TEWEN  =    177763.45105662
  -Hartree energ DENC   =   -236305.16741302
  -exchange      EXHF   =         0.00000000
  -V(xc)+E(xc)   XCENC  =      2161.70529472
  PAW double counting   =     60504.96821752   -65471.90607044
  entropy T*S    EENTRO =         0.00000000
  eigenvalues    EBANDS =     -2759.40610983
  atomic energy  EATOM  =     63983.03689426
  Solvation  Ediel_sol  =         0.00000000
  ---------------------------------------------------
  free energy    TOTEN  =        13.19205300 eV

  energy without entropy =       13.19205300  energy(sigma->0) =       13.19205300


--------------------------------------------------------------------------------------------------------




--------------------------------------- Iteration      1(  14)  ---------------------------------------


    POTLOK:  cpu time    0.3280: real time    0.3364
    SETDIJ:  cpu time    0.0120: real time    0.0120
     EDDAV:  cpu time   12.9880: real time   12.9904
       DOS:  cpu time    0.0040: real time    0.0006
    CHARGE:  cpu time    0.2000: real time    0.2005
    MIXING:  cpu time    0.0120: real time    0.0128
    --------------------------------------------
      LOOP:  cpu time   13.5440: real time   13.5528

 eigenvalue-minimisations  :  2000
 total energy-change (2. order) :-0.4999013E+02  (-0.4124999E+01)
 number of electron     506.0000295 magnetization      25.1649789
 augmentation part      322.8741666 magnetization       7.8097256

 Broyden mixing:
  rms(total) = 0.71109E+00    rms(broyden)= 0.71083E+00
  rms(prec ) = 0.73017E+00
  weight for this iteration     100.00

 eigenvalues of (default mixing * dielectric matrix)
  average eigenvalue GAMMA=   1.3966
  5.6543  2.4106  0.8767  0.8767  0.8259  0.6596  0.4829  0.3914  0.3914

 Free energy of the ion-electron system (eV)
  ---------------------------------------------------
  alpha Z        PSCENC =       136.51018317
  Ewald energy   TEWEN  =    177763.45105662
  -Hartree energ DENC   =   -236302.95783021
  -exchange      EXHF   =         0.00000000
  -V(xc)+E(xc)   XCENC  =      2125.48011431
  PAW double counting   =     60231.12096164   -65195.44990758
  entropy T*S    EENTRO =         0.00000000
  eigenvalues    EBANDS =     -2777.98954842
  atomic energy  EATOM  =     63983.03689426
  Solvation  Ediel_sol  =         0.00000000
  ---------------------------------------------------
  free energy    TOTEN  =       -36.79807621 eV

  energy without entropy =      -36.79807621  energy(sigma->0) =      -36.79807621


--------------------------------------------------------------------------------------------------------




--------------------------------------- Iteration      1(  15)  ---------------------------------------


    POTLOK:  cpu time    0.3320: real time    0.3396
    SETDIJ:  cpu time    0.0120: real time    0.0119
     EDDAV:  cpu time   12.3880: real time   12.3873
       DOS:  cpu time    0.0040: real time    0.0007
    CHARGE:  cpu time    0.2000: real time    0.1998
    MIXING:  cpu time    0.0120: real time    0.0135
    --------------------------------------------
      LOOP:  cpu time   12.9480: real time   12.9528

 eigenvalue-minimisations  :  1888
 total energy-change (2. order) :-0.4715805E+02  (-0.4166108E+01)
 number of electron     506.0000298 magnetization      20.8920326
 augmentation part      323.0351400 magnetization       8.3154958

 Broyden mixing:
  rms(total) = 0.53530E+00    rms(broyden)= 0.53458E+00
  rms(prec ) = 0.55625E+00
  weight for this iteration     100.00

 eigenvalues of (default mixing * dielectric matrix)
  average eigenvalue GAMMA=   1.4238
  6.0181  2.9627  0.9249  0.9249  0.8526  0.6814  0.6814  0.4266  0.3826  0.3826

 Free energy of the ion-electron system (eV)
  ---------------------------------------------------
  alpha Z        PSCENC =       136.51018317
  Ewald energy   TEWEN  =    177763.45105662
  -Hartree energ DENC   =   -236214.84277117
  -exchange      EXHF   =         0.00000000
  -V(xc)+E(xc)   XCENC  =      2087.87744398
  PAW double counting   =     59842.02393604   -64784.76736852
  entropy T*S    EENTRO =         0.00000000
  eigenvalues    EBANDS =     -2897.24550416
  atomic energy  EATOM  =     63983.03689426
  Solvation  Ediel_sol  =         0.00000000
  ---------------------------------------------------
  free energy    TOTEN  =       -83.95612978 eV

  energy without entropy =      -83.95612978  energy(sigma->0) =      -83.95612978


--------------------------------------------------------------------------------------------------------




--------------------------------------- Iteration      1(  16)  ---------------------------------------


    POTLOK:  cpu time    0.3280: real time    0.3476
    SETDIJ:  cpu time    0.0120: real time    0.0120
     EDDAV:  cpu time   12.3800: real time   12.3797
       DOS:  cpu time    0.0000: real time    0.0008
    CHARGE:  cpu time    0.2000: real time    0.1994
    MIXING:  cpu time    0.0160: real time    0.0141
    --------------------------------------------
      LOOP:  cpu time   12.9360: real time   12.9536

 eigenvalue-minimisations  :  1880
 total energy-change (2. order) :-0.1745311E+02  (-0.1409473E+01)
 number of electron     506.0000297 magnetization      18.1261207
 augmentation part      322.9900788 magnetization       7.3166218

 Broyden mixing:
  rms(total) = 0.43132E+00    rms(broyden)= 0.43111E+00
  rms(prec ) = 0.44893E+00
  weight for this iteration     100.00

 eigenvalues of (default mixing * dielectric matrix)
  average eigenvalue GAMMA=   1.4542
  6.3644  3.5618  0.9872  0.9872  0.7908  0.7908  0.7860  0.5569  0.4040  0.4040
  0.3630

 Free energy of the ion-electron system (eV)
  ---------------------------------------------------
  alpha Z        PSCENC =       136.51018317
  Ewald energy   TEWEN  =    177763.45105662
  -Hartree energ DENC   =   -236186.51635124
  -exchange      EXHF   =         0.00000000
  -V(xc)+E(xc)   XCENC  =      2074.18057934
  PAW double counting   =     59756.75413768   -64692.81512610
  entropy T*S    EENTRO =        -0.00000000
  eigenvalues    EBANDS =     -2936.01061101
  atomic energy  EATOM  =     63983.03689426
  Solvation  Ediel_sol  =         0.00000000
  ---------------------------------------------------
  free energy    TOTEN  =      -101.40923728 eV

  energy without entropy =     -101.40923728  energy(sigma->0) =     -101.40923728


--------------------------------------------------------------------------------------------------------




--------------------------------------- Iteration      1(  17)  ---------------------------------------


    POTLOK:  cpu time    0.3400: real time    0.3429
    SETDIJ:  cpu time    0.0120: real time    0.0119
     EDDAV:  cpu time   12.8720: real time   12.8726
       DOS:  cpu time    0.0000: real time    0.0007
    CHARGE:  cpu time    0.2000: real time    0.1991
    MIXING:  cpu time    0.0160: real time    0.0147
    --------------------------------------------
      LOOP:  cpu time   13.4400: real time   13.4418

 eigenvalue-minimisations  :  1976
 total energy-change (2. order) :-0.1175377E+02  (-0.5861486E+00)
 number of electron     506.0000297 magnetization      13.8111210
 augmentation part      323.4963429 magnetization       7.1896288

 Broyden mixing:
  rms(total) = 0.35436E+00    rms(broyden)= 0.35342E+00
  rms(prec ) = 0.37225E+00
  weight for this iteration     100.00

 eigenvalues of (default mixing * dielectric matrix)
  average eigenvalue GAMMA=   1.4432
  7.0582  3.5762  0.9981  0.9981  1.0260  0.7660  0.7660  0.5698  0.4451  0.4036
  0.3666  0.3443

 Free energy of the ion-electron system (eV)
  ---------------------------------------------------
  alpha Z        PSCENC =       136.51018317
  Ewald energy   TEWEN  =    177763.45105662
  -Hartree energ DENC   =   -236132.07591211
  -exchange      EXHF   =         0.00000000
  -V(xc)+E(xc)   XCENC  =      2063.53418437
  PAW double counting   =     59671.59946921   -64602.63834926
  entropy T*S    EENTRO =        -0.00000000
  eigenvalues    EBANDS =     -2996.58053273
  atomic energy  EATOM  =     63983.03689426
  Solvation  Ediel_sol  =         0.00000000
  ---------------------------------------------------
  free energy    TOTEN  =      -113.16300647 eV

  energy without entropy =     -113.16300647  energy(sigma->0) =     -113.16300647


--------------------------------------------------------------------------------------------------------




--------------------------------------- Iteration      1(  18)  ---------------------------------------


    POTLOK:  cpu time    0.3280: real time    0.3397
    SETDIJ:  cpu time    0.0120: real time    0.0120
     EDDAV:  cpu time   12.2280: real time   12.2278
       DOS:  cpu time    0.0000: real time    0.0007
    CHARGE:  cpu time    0.2000: real time    0.2009
    MIXING:  cpu time    0.0160: real time    0.0154
    --------------------------------------------
      LOOP:  cpu time   12.7840: real time   12.7966

 eigenvalue-minimisations  :  1856
 total energy-change (2. order) :-0.7108638E+01  (-0.2217888E+00)
 number of electron     506.0000294 magnetization      10.1964546
 augmentation part      323.7461689 magnetization       5.8731428

 Broyden mixing:
  rms(total) = 0.28270E+00    rms(broyden)= 0.28217E+00
  rms(prec ) = 0.29592E+00
  weight for this iteration     100.00

 eigenvalues of (default mixing * dielectric matrix)
  average eigenvalue GAMMA=   1.4626
  7.9838  3.3168  1.2968  1.0913  1.0913  0.7253  0.7253  0.6103  0.6103  0.4471
  0.3775  0.3775  0.3597

 Free energy of the ion-electron system (eV)
  ---------------------------------------------------
  alpha Z        PSCENC =       136.51018317
  Ewald energy   TEWEN  =    177763.45105662
  -Hartree energ DENC   =   -236109.59241711
  -exchange      EXHF   =         0.00000000
  -V(xc)+E(xc)   XCENC  =      2056.85993826
  PAW double counting   =     59663.56924832   -64595.47745522
  entropy T*S    EENTRO =        -0.00000000
  eigenvalues    EBANDS =     -3018.62909265
  atomic energy  EATOM  =     63983.03689426
  Solvation  Ediel_sol  =         0.00000000
  ---------------------------------------------------
  free energy    TOTEN  =      -120.27164435 eV

  energy without entropy =     -120.27164435  energy(sigma->0) =     -120.27164435


--------------------------------------------------------------------------------------------------------




--------------------------------------- Iteration      1(  19)  ---------------------------------------


    POTLOK:  cpu time    0.3280: real time    0.3421
    SETDIJ:  cpu time    0.0120: real time    0.0119
     EDDAV:  cpu time   12.5040: real time   12.5023
       DOS:  cpu time    0.0000: real time    0.0007
    CHARGE:  cpu time    0.2000: real time    0.1985
    MIXING:  cpu time    0.0160: real time    0.0163
    --------------------------------------------
      LOOP:  cpu time   13.0600: real time   13.0717

 eigenvalue-minimisations  :  1904
 total energy-change (2. order) :-0.3860614E+01  (-0.9435763E-01)
 number of electron     506.0000293 magnetization       6.6632971
 augmentation part      323.6359430 magnetization       5.8717306

 Broyden mixing:
  rms(total) = 0.29991E+00    rms(broyden)= 0.29903E+00
  rms(prec ) = 0.31608E+00
  weight for this iteration     100.00

 eigenvalues of (default mixing * dielectric matrix)
  average eigenvalue GAMMA=   1.4463
  8.7460  3.1123  1.5531  1.1360  1.1360  0.7161  0.7161  0.6335  0.6335  0.4414
  0.3811  0.3811  0.3707  0.2914

 Free energy of the ion-electron system (eV)
  ---------------------------------------------------
  alpha Z        PSCENC =       136.51018317
  Ewald energy   TEWEN  =    177763.45105662
  -Hartree energ DENC   =   -236105.69824932
  -exchange      EXHF   =         0.00000000
  -V(xc)+E(xc)   XCENC  =      2053.43029254
  PAW double counting   =     59703.72890962   -64640.02472787
  entropy T*S    EENTRO =        -0.00000000
  eigenvalues    EBANDS =     -3018.56661705
  atomic energy  EATOM  =     63983.03689426
  Solvation  Ediel_sol  =         0.00000000
  ---------------------------------------------------
  free energy    TOTEN  =      -124.13225802 eV

  energy without entropy =     -124.13225802  energy(sigma->0) =     -124.13225802


--------------------------------------------------------------------------------------------------------




--------------------------------------- Iteration      1(  20)  ---------------------------------------


    POTLOK:  cpu time    0.3280: real time    0.3383
    SETDIJ:  cpu time    0.0120: real time    0.0119
     EDDAV:  cpu time   13.1640: real time   13.1637
       DOS:  cpu time    0.0000: real time    0.0006
    CHARGE:  cpu time    0.2000: real time    0.2001
    MIXING:  cpu time    0.0160: real time    0.0168
    --------------------------------------------
      LOOP:  cpu time   13.7200: real time   13.7314

 eigenvalue-minimisations  :  2032
 total energy-change (2. order) :-0.2689554E+01  (-0.4523136E-01)
 number of electron     506.0000293 magnetization       4.3493987
 augmentation part      323.6389241 magnetization       3.9200309

 Broyden mixing:
  rms(total) = 0.19003E+00    rms(broyden)= 0.18996E+00
  rms(prec ) = 0.20513E+00
  weight for this iteration     100.00

 eigenvalues of (default mixing * dielectric matrix)
  average eigenvalue GAMMA=   1.4884
  9.6307  2.6985  2.2162  1.0954  1.0954  0.8650  0.7322  0.7322  0.6031  0.6031
  0.5096  0.4575  0.3757  0.3757  0.3361

 Free energy of the ion-electron system (eV)
  ---------------------------------------------------
  alpha Z        PSCENC =       136.51018317
  Ewald energy   TEWEN  =    177763.45105662
  -Hartree energ DENC   =   -236099.18285579
  -exchange      EXHF   =         0.00000000
  -V(xc)+E(xc)   XCENC  =      2050.88809865
  PAW double counting   =     59718.89046525   -64657.46456509
  entropy T*S    EENTRO =         0.00000000
  eigenvalues    EBANDS =     -3022.95108911
  atomic energy  EATOM  =     63983.03689426
  Solvation  Ediel_sol  =         0.00000000
  ---------------------------------------------------
  free energy    TOTEN  =      -126.82181204 eV

  energy without entropy =     -126.82181204  energy(sigma->0) =     -126.82181204


--------------------------------------------------------------------------------------------------------




--------------------------------------- Iteration      1(  21)  ---------------------------------------


    POTLOK:  cpu time    0.3320: real time    0.3457
    SETDIJ:  cpu time    0.0120: real time    0.0117
     EDDAV:  cpu time   11.5960: real time   11.5980
       DOS:  cpu time    0.0040: real time    0.0007
    CHARGE:  cpu time    0.2000: real time    0.2004
    MIXING:  cpu time    0.0160: real time    0.0177
    --------------------------------------------
      LOOP:  cpu time   12.1600: real time   12.1742

 eigenvalue-minimisations  :  1736
 total energy-change (2. order) :-0.3074963E+01  (-0.4393838E-01)
 number of electron     506.0000293 magnetization       3.4354926
 augmentation part      323.6219048 magnetization       3.2523871

 Broyden mixing:
  rms(total) = 0.14802E+00    rms(broyden)= 0.14799E+00
  rms(prec ) = 0.16495E+00
  weight for this iteration     100.00

 eigenvalues of (default mixing * dielectric matrix)
  average eigenvalue GAMMA=   1.5045
 10.0738  2.7083  2.7083  1.2225  1.0157  1.0157  0.7861  0.7861  0.6386  0.6386
  0.4843  0.4843  0.3979  0.3979  0.3806  0.3327

 Free energy of the ion-electron system (eV)
  ---------------------------------------------------
  alpha Z        PSCENC =       136.51018317
  Ewald energy   TEWEN  =    177763.45105662
  -Hartree energ DENC   =   -236073.97032194
  -exchange      EXHF   =         0.00000000
  -V(xc)+E(xc)   XCENC  =      2047.81798519
  PAW double counting   =     59706.53279652   -64646.79323580
  entropy T*S    EENTRO =         0.00000000
  eigenvalues    EBANDS =     -3046.48213320
  atomic energy  EATOM  =     63983.03689426
  Solvation  Ediel_sol  =         0.00000000
  ---------------------------------------------------
  free energy    TOTEN  =      -129.89677517 eV

  energy without entropy =     -129.89677517  energy(sigma->0) =     -129.89677517


--------------------------------------------------------------------------------------------------------




--------------------------------------- Iteration      1(  22)  ---------------------------------------


    POTLOK:  cpu time    0.3280: real time    0.3612
    SETDIJ:  cpu time    0.0120: real time    0.0119
     EDDAV:  cpu time   12.9480: real time   12.9480
       DOS:  cpu time    0.0000: real time    0.0007
    CHARGE:  cpu time    0.2000: real time    0.1992
    MIXING:  cpu time    0.0200: real time    0.0183
    --------------------------------------------
      LOOP:  cpu time   13.5080: real time   13.5393

 eigenvalue-minimisations  :  1992
 total energy-change (2. order) :-0.2584008E+01  (-0.3053724E-01)
 number of electron     506.0000293 magnetization       2.1997485
 augmentation part      323.7960426 magnetization       2.1322811

 Broyden mixing:
  rms(total) = 0.81265E-01    rms(broyden)= 0.81227E-01
  rms(prec ) = 0.89720E-01
  weight for this iteration     100.00

 eigenvalues of (default mixing * dielectric matrix)
  average eigenvalue GAMMA=   1.5266
 10.5123  3.3994  2.2584  1.0971  1.0971  1.1917  1.1917  0.7475  0.7475  0.6348
  0.6348  0.4675  0.4675  0.4155  0.3796  0.3796  0.3310

 Free energy of the ion-electron system (eV)
  ---------------------------------------------------
  alpha Z        PSCENC =       136.51018317
  Ewald energy   TEWEN  =    177763.45105662
  -Hartree energ DENC   =   -236029.17257640
  -exchange      EXHF   =         0.00000000
  -V(xc)+E(xc)   XCENC  =      2044.76973327
  PAW double counting   =     59664.70042215   -64603.85630980
  entropy T*S    EENTRO =         0.00000000
  eigenvalues    EBANDS =     -3091.92018654
  atomic energy  EATOM  =     63983.03689426
  Solvation  Ediel_sol  =         0.00000000
  ---------------------------------------------------
  free energy    TOTEN  =      -132.48078327 eV

  energy without entropy =     -132.48078327  energy(sigma->0) =     -132.48078327


--------------------------------------------------------------------------------------------------------




--------------------------------------- Iteration      1(  23)  ---------------------------------------


    POTLOK:  cpu time    0.3320: real time    0.3403
    SETDIJ:  cpu time    0.0120: real time    0.0118
     EDDAV:  cpu time   12.2000: real time   12.1963
       DOS:  cpu time    0.0000: real time    0.0007
    CHARGE:  cpu time    0.2000: real time    0.2014
    MIXING:  cpu time    0.0200: real time    0.0192
    --------------------------------------------
      LOOP:  cpu time   12.7640: real time   12.7696

 eigenvalue-minimisations  :  1848
 total energy-change (2. order) :-0.1958173E+01  (-0.2653647E-01)
 number of electron     506.0000292 magnetization       1.6033576
 augmentation part      323.9361919 magnetization       1.5893687

 Broyden mixing:
  rms(total) = 0.74359E-01    rms(broyden)= 0.74339E-01
  rms(prec ) = 0.80579E-01
  weight for this iteration     100.00

 eigenvalues of (default mixing * dielectric matrix)
  average eigenvalue GAMMA=   1.5205
 10.7909  3.5448  2.0290  1.6000  1.6000  0.9875  0.9875  0.7407  0.7407  0.6639
  0.6639  0.6434  0.4313  0.4313  0.4290  0.3776  0.3776  0.3305

 Free energy of the ion-electron system (eV)
  ---------------------------------------------------
  alpha Z        PSCENC =       136.51018317
  Ewald energy   TEWEN  =    177763.45105662
  -Hartree energ DENC   =   -235997.33103109
  -exchange      EXHF   =         0.00000000
  -V(xc)+E(xc)   XCENC  =      2042.62189879
  PAW double counting   =     59653.46092416   -64592.06569780
  entropy T*S    EENTRO =         0.00000000
  eigenvalues    EBANDS =     -3124.12318438
  atomic energy  EATOM  =     63983.03689426
  Solvation  Ediel_sol  =         0.00000000
  ---------------------------------------------------
  free energy    TOTEN  =      -134.43895627 eV

  energy without entropy =     -134.43895627  energy(sigma->0) =     -134.43895627


--------------------------------------------------------------------------------------------------------




--------------------------------------- Iteration      1(  24)  ---------------------------------------


    POTLOK:  cpu time    0.3360: real time    0.3373
    SETDIJ:  cpu time    0.0120: real time    0.0121
     EDDAV:  cpu time   10.9720: real time   10.9689
       DOS:  cpu time    0.0000: real time    0.0007
    CHARGE:  cpu time    0.2000: real time    0.2004
    MIXING:  cpu time    0.0200: real time    0.0201
    --------------------------------------------
      LOOP:  cpu time   11.5400: real time   11.5394

 eigenvalue-minimisations  :  1616
 total energy-change (2. order) :-0.6178697E+00  (-0.5897551E-02)
 number of electron     506.0000293 magnetization       0.7684607
 augmentation part      323.8890791 magnetization       0.7497642

 Broyden mixing:
  rms(total) = 0.49376E-01    rms(broyden)= 0.49364E-01
  rms(prec ) = 0.54999E-01
  weight for this iteration     100.00

 eigenvalues of (default mixing * dielectric matrix)
  average eigenvalue GAMMA=   1.5252
 11.1430  3.3159  2.9267  1.5322  1.5322  1.0237  1.0237  0.8995  0.7211  0.7211
  0.6431  0.6431  0.4513  0.4513  0.4585  0.3864  0.3864  0.3885  0.3312

 Free energy of the ion-electron system (eV)
  ---------------------------------------------------
  alpha Z        PSCENC =       136.51018317
  Ewald energy   TEWEN  =    177763.45105662
  -Hartree energ DENC   =   -235985.50318686
  -exchange      EXHF   =         0.00000000
  -V(xc)+E(xc)   XCENC  =      2042.08220404
  PAW double counting   =     59661.67647221   -64601.29341437
  entropy T*S    EENTRO =         0.00000000
  eigenvalues    EBANDS =     -3135.01703508
  atomic energy  EATOM  =     63983.03689426
  Solvation  Ediel_sol  =         0.00000000
  ---------------------------------------------------
  free energy    TOTEN  =      -135.05682601 eV

  energy without entropy =     -135.05682601  energy(sigma->0) =     -135.05682601


--------------------------------------------------------------------------------------------------------




--------------------------------------- Iteration      1(  25)  ---------------------------------------


    POTLOK:  cpu time    0.3320: real time    0.3368
    SETDIJ:  cpu time    0.0120: real time    0.0120
     EDDAV:  cpu time   11.5560: real time   11.5520
       DOS:  cpu time    0.0000: real time    0.0006
    CHARGE:  cpu time    0.2000: real time    0.2001
    MIXING:  cpu time    0.0200: real time    0.0212
    --------------------------------------------
      LOOP:  cpu time   12.1200: real time   12.1227

 eigenvalue-minimisations  :  1728
 total energy-change (2. order) :-0.6479409E+00  (-0.3555528E-02)
 number of electron     506.0000293 magnetization       0.3182738
 augmentation part      323.7556702 magnetization       0.3071756

 Broyden mixing:
  rms(total) = 0.34179E-01    rms(broyden)= 0.34169E-01
  rms(prec ) = 0.38450E-01
  weight for this iteration     100.00

 eigenvalues of (default mixing * dielectric matrix)
  average eigenvalue GAMMA=   1.5637
 11.5164  3.7405  3.1647  1.6186  1.6186  1.3382  1.0104  1.0104  0.7388  0.7388
  0.6984  0.6372  0.6372  0.4476  0.4476  0.3312  0.4110  0.4110  0.3788  0.3788

 Free energy of the ion-electron system (eV)
  ---------------------------------------------------
  alpha Z        PSCENC =       136.51018317
  Ewald energy   TEWEN  =    177763.45105662
  -Hartree energ DENC   =   -235971.84552958
  -exchange      EXHF   =         0.00000000
  -V(xc)+E(xc)   XCENC  =      2041.60194178
  PAW double counting   =     59675.96206811   -64617.53268673
  entropy T*S    EENTRO =        -0.00000000
  eigenvalues    EBANDS =     -3146.88869457
  atomic energy  EATOM  =     63983.03689426
  Solvation  Ediel_sol  =         0.00000000
  ---------------------------------------------------
  free energy    TOTEN  =      -135.70476694 eV

  energy without entropy =     -135.70476694  energy(sigma->0) =     -135.70476694


--------------------------------------------------------------------------------------------------------




--------------------------------------- Iteration      1(  26)  ---------------------------------------


    POTLOK:  cpu time    0.3360: real time    0.3374
    SETDIJ:  cpu time    0.0080: real time    0.0117
     EDDAV:  cpu time   11.1840: real time   11.1811
       DOS:  cpu time    0.0000: real time    0.0007
    CHARGE:  cpu time    0.1960: real time    0.1952
    MIXING:  cpu time    0.0240: real time    0.0228
    --------------------------------------------
      LOOP:  cpu time   11.7480: real time   11.7489

 eigenvalue-minimisations  :  1656
 total energy-change (2. order) :-0.5000857E+00  (-0.1561721E-02)
 number of electron     506.0000293 magnetization       0.3458958
 augmentation part      323.7418510 magnetization       0.3681436

 Broyden mixing:
  rms(total) = 0.31235E-01    rms(broyden)= 0.31229E-01
  rms(prec ) = 0.34226E-01
  weight for this iteration     100.00

 eigenvalues of (default mixing * dielectric matrix)
  average eigenvalue GAMMA=   1.5341
 11.4893  4.0846  3.0221  1.7944  1.7944  1.2424  0.9943  0.9943  0.7334  0.7334
  0.7503  0.6125  0.6125  0.6236  0.4290  0.4290  0.3306  0.4013  0.4013  0.3711
  0.3711

 Free energy of the ion-electron system (eV)
  ---------------------------------------------------
  alpha Z        PSCENC =       136.51018317
  Ewald energy   TEWEN  =    177763.45105662
  -Hartree energ DENC   =   -235956.62820402
  -exchange      EXHF   =         0.00000000
  -V(xc)+E(xc)   XCENC  =      2041.03649821
  PAW double counting   =     59677.57579140   -64619.42110999
  entropy T*S    EENTRO =         0.00000000
  eigenvalues    EBANDS =     -3161.76596226
  atomic energy  EATOM  =     63983.03689426
  Solvation  Ediel_sol  =         0.00000000
  ---------------------------------------------------
  free energy    TOTEN  =      -136.20485261 eV

  energy without entropy =     -136.20485261  energy(sigma->0) =     -136.20485261


--------------------------------------------------------------------------------------------------------




--------------------------------------- Iteration      1(  27)  ---------------------------------------


    POTLOK:  cpu time    0.3280: real time    0.3402
    SETDIJ:  cpu time    0.0120: real time    0.0120
     EDDAV:  cpu time   10.9520: real time   10.9542
       DOS:  cpu time    0.0040: real time    0.0007
    CHARGE:  cpu time    0.1960: real time    0.1974
    MIXING:  cpu time    0.0240: real time    0.0232
    --------------------------------------------
      LOOP:  cpu time   11.5160: real time   11.5276

 eigenvalue-minimisations  :  1608
 total energy-change (2. order) :-0.1745199E+00  (-0.6812942E-03)
 number of electron     506.0000293 magnetization       0.5483242
 augmentation part      323.7564814 magnetization       0.5658674

 Broyden mixing:
  rms(total) = 0.17806E-01    rms(broyden)= 0.17802E-01
  rms(prec ) = 0.20424E-01
  weight for this iteration     100.00

 eigenvalues of (default mixing * dielectric matrix)
  average eigenvalue GAMMA=   1.5318
 11.3446  4.5781  2.6046  2.6046  1.5234  1.1536  1.1536  1.0070  1.0070  0.7353
  0.7353  0.7123  0.6330  0.6330  0.5357  0.4276  0.4276  0.4178  0.3313  0.3787
  0.3787  0.3766

 Free energy of the ion-electron system (eV)
  ---------------------------------------------------
  alpha Z        PSCENC =       136.51018317
  Ewald energy   TEWEN  =    177763.45105662
  -Hartree energ DENC   =   -235948.35353630
  -exchange      EXHF   =         0.00000000
  -V(xc)+E(xc)   XCENC  =      2040.79000963
  PAW double counting   =     59678.58581965   -64620.12933289
  entropy T*S    EENTRO =         0.00000000
  eigenvalues    EBANDS =     -3170.27046669
  atomic energy  EATOM  =     63983.03689426
  Solvation  Ediel_sol  =         0.00000000
  ---------------------------------------------------
  free energy    TOTEN  =      -136.37937254 eV

  energy without entropy =     -136.37937254  energy(sigma->0) =     -136.37937254


--------------------------------------------------------------------------------------------------------




--------------------------------------- Iteration      1(  28)  ---------------------------------------


    POTLOK:  cpu time    0.3320: real time    0.3372
    SETDIJ:  cpu time    0.0120: real time    0.0119
     EDDAV:  cpu time   12.6560: real time   12.6551
       DOS:  cpu time    0.0000: real time    0.0007
    CHARGE:  cpu time    0.1960: real time    0.1977
    MIXING:  cpu time    0.0280: real time    0.0246
    --------------------------------------------
      LOOP:  cpu time   13.2240: real time   13.2273

 eigenvalue-minimisations  :  1936
 total energy-change (2. order) :-0.1504305E+00  (-0.6085872E-03)
 number of electron     506.0000293 magnetization       0.4918657
 augmentation part      323.8053212 magnetization       0.4802753

 Broyden mixing:
  rms(total) = 0.11238E-01    rms(broyden)= 0.11234E-01
  rms(prec ) = 0.13187E-01
  weight for this iteration     100.00

 eigenvalues of (default mixing * dielectric matrix)
  average eigenvalue GAMMA=   1.5282
 11.3433  4.8298  2.8093  2.8093  1.3100  1.3100  1.2663  1.0044  1.0044  0.8472
  0.7373  0.7373  0.6869  0.6229  0.6229  0.4784  0.4281  0.4281  0.3311  0.4131
  0.3801  0.3801  0.3674

 Free energy of the ion-electron system (eV)
  ---------------------------------------------------
  alpha Z        PSCENC =       136.51018317
  Ewald energy   TEWEN  =    177763.45105662
  -Hartree energ DENC   =   -235938.86130563
  -exchange      EXHF   =         0.00000000
  -V(xc)+E(xc)   XCENC  =      2040.52766230
  PAW double counting   =     59680.07222058   -64620.89814078
  entropy T*S    EENTRO =         0.00000000
  eigenvalues    EBANDS =     -3180.36837356
  atomic energy  EATOM  =     63983.03689426
  Solvation  Ediel_sol  =         0.00000000
  ---------------------------------------------------
  free energy    TOTEN  =      -136.52980304 eV

  energy without entropy =     -136.52980304  energy(sigma->0) =     -136.52980304


--------------------------------------------------------------------------------------------------------




--------------------------------------- Iteration      1(  29)  ---------------------------------------


    POTLOK:  cpu time    0.3360: real time    0.3416
    SETDIJ:  cpu time    0.0120: real time    0.0117
     EDDAV:  cpu time   12.1920: real time   12.1892
       DOS:  cpu time    0.0000: real time    0.0007
[...]
   31       -0.000  -0.000  -0.000  -0.000
   32       -0.000  -0.000   0.000   0.000
   33       -0.000  -0.000  -0.000  -0.000
   34       -0.000  -0.000   0.000   0.000
   35        0.000   0.000  -0.000   0.000
   36        0.000   0.000  -0.000   0.000
   37        0.000  -0.000   0.000   0.000
   38       -0.000  -0.000  -0.000  -0.000
   39        0.000   0.000  -0.000   0.000
   40       -0.000  -0.000   0.000   0.000
   41        0.000  -0.000   0.000   0.000
   42       -0.000  -0.000   0.000   0.000
   43        0.000   0.000   0.000   0.000
   44        0.000  -0.000   0.000   0.000
   45       -0.000  -0.000   0.000   0.000
   46       -0.000   0.000  -0.000   0.000
--------------------------------------------------
tot          0.000   0.000   0.000   0.000
 
    CHARGE:  cpu time    0.2000: real time    0.2001
    FORLOC:  cpu time    0.0280: real time    0.0286
    FORNL :  cpu time    6.0360: real time    6.0344
    STRESS:  cpu time   10.0280: real time   10.0271
    FORCOR:  cpu time    0.3320: real time    0.3307
    FORHAR:  cpu time    0.0600: real time    0.0614
    MIXING:  cpu time    0.0560: real time    0.0553
    OFIELD:  cpu time    0.0000: real time    0.0001

  FORCE on cell =-STRESS in cart. coord.  units (eV):
  Direction    XX          YY          ZZ          XY          YZ          ZX
  --------------------------------------------------------------------------------------
  Alpha Z   136.51018   136.51018   136.51018
  Ewald   56341.98659 54981.93040 66439.41186 -1113.57952  -551.13423   -37.83573
  Hartree 75782.88774 74630.68440 85502.05016  -941.79088  -484.94623   -81.91256
  E(xc)   -2953.29811 -2953.63085 -2952.82226    -0.28514    -0.10117     0.07067
  Local  ************************************  2048.73115  1033.32109   124.38893
  n-local -1058.99674 -1059.59198 -1054.27617    -0.48291     0.23482    -1.26246
  augment  4331.48267  4335.26742  4333.02492     3.19902     1.16924    -1.57837
  Kinetic  4138.02742  4142.94621  4141.21439     4.01231     1.45892    -2.16371
  Fock        0.00000     0.00000     0.00000     0.00000     0.00000     0.00000
  -------------------------------------------------------------------------------------
  Total     -12.67914   -13.04615   -12.84899    -0.19598     0.00244    -0.29322
  in kB      -1.79200    -1.84387    -1.81600    -0.02770     0.00034    -0.04144
  external pressure =       -1.82 kB  Pullay stress =        0.00 kB


 VOLUME and BASIS-vectors are now :
 -----------------------------------------------------------------------------
  energy-cutoff  :      295.45
  volume of cell :    11336.08
      direct lattice vectors                 reciprocal lattice vectors
    22.464027000  0.000000000  0.000000000     0.044515616  0.000000000  0.000000000
     0.000000000 22.464027000  0.000000000     0.000000000  0.044515616  0.000000000
     0.000000000  0.000000000 22.464027000     0.000000000  0.000000000  0.044515616

  length of vectors
    22.464027000 22.464027000 22.464027000     0.044515616  0.044515616  0.044515616


 FORCES acting on ions
    electron-ion (+dipol)            ewald-force                    non-local-force                 convergence-correction
 -----------------------------------------------------------------------------------------------
   -.135E+04 -.800E+03 -.165E+04   0.135E+04 0.799E+03 0.165E+04   0.173E+01 0.930E+00 0.298E+01   0.466E-04 -.175E-03 -.555E-04
   -.222E+04 -.440E+03 -.434E+03   0.221E+04 0.439E+03 0.433E+03   0.362E+01 0.763E+00 0.253E+00   -.344E-04 -.276E-03 0.555E-04
   -.195E+04 0.265E+03 -.140E+04   0.195E+04 -.263E+03 0.139E+04   0.531E+01 -.193E+01 0.479E+01   -.171E-03 -.178E-03 -.699E-04
   -.612E+03 0.482E+03 -.222E+04   0.608E+03 -.480E+03 0.221E+04   0.349E+01 -.209E+01 0.353E+01   0.386E-03 -.205E-03 -.337E-03
   -.147E+04 -.172E+04 -.516E+03   0.147E+04 0.171E+04 0.514E+03   0.172E+01 0.110E+01 0.168E+01   0.144E-03 -.171E-03 0.136E-03
   -.124E+04 0.162E+04 -.130E+04   0.124E+04 -.162E+04 0.130E+04   0.420E+01 -.369E+01 0.487E+01   0.570E-04 0.234E-03 -.675E-04
   -.206E+04 0.110E+04 -.700E+02   0.206E+04 -.110E+04 0.684E+02   0.356E+01 -.193E+01 0.156E+01   0.461E-06 0.261E-04 0.213E-03
   0.300E+02 -.672E+03 -.219E+04   -.301E+02 0.670E+03 0.219E+04   0.555E-01 0.178E+01 0.248E+01   -.204E-04 0.151E-03 -.155E-03
   -.613E+03 -.183E+04 -.152E+04   0.611E+03 0.182E+04 0.151E+04   0.242E+01 0.604E+01 0.382E+01   0.140E-03 -.213E-03 0.242E-03
   -.207E+04 -.123E+04 0.578E+03   0.206E+04 0.123E+04 -.576E+03   0.586E+01 0.472E+01 -.125E+01   0.604E-04 -.985E-04 0.827E-04
   -.128E+02 0.173E+04 -.148E+04   0.127E+02 -.173E+04 0.148E+04   0.635E-01 -.223E+01 0.276E+01   0.673E-04 0.600E-04 -.442E-04
   -.299E+02 -.696E+03 -.778E+03   0.295E+02 0.695E+03 0.777E+03   0.484E+00 0.101E+01 0.973E+00   0.106E-04 0.164E-03 0.202E-03
   0.692E+03 0.589E+03 -.210E+04   -.691E+03 -.587E+03 0.210E+04   -.153E+01 -.133E+01 0.212E+01   -.134E-03 -.130E-03 -.239E-03
   0.595E+03 0.499E+03 -.686E+03   -.595E+03 -.498E+03 0.685E+03   -.587E+00 -.108E+01 0.795E+00   -.247E-03 -.205E-03 0.178E-03
   -.768E+03 0.456E+03 -.748E+03   0.766E+03 -.454E+03 0.747E+03   0.190E+01 -.117E+01 0.135E+01   0.419E-03 -.271E-03 0.298E-03
   -.148E+04 0.151E+04 0.936E+03   0.148E+04 -.151E+04 -.934E+03   0.260E+01 -.151E+01 -.171E+01   0.248E-03 0.167E-03 -.172E-03
   0.143E+04 -.629E+03 -.179E+04   -.142E+04 0.626E+03 0.178E+04   -.558E+01 0.275E+01 0.381E+01   -.911E-04 0.299E-04 -.256E-03
   -.211E+04 0.275E+03 0.845E+03   0.211E+04 -.274E+03 -.844E+03   0.238E+01 -.102E+01 -.167E+01   -.576E-04 -.156E-03 -.185E-03
   -.871E+03 0.212E+04 -.254E+03   0.870E+03 -.211E+04 0.254E+03   0.138E+01 -.341E+01 -.123E+00   0.164E-03 0.133E-03 0.213E-03
   -.908E+03 -.196E+04 0.800E+03   0.906E+03 0.196E+04 -.799E+03   0.161E+01 0.207E+01 -.746E+00   -.925E-05 -.560E-04 -.985E-04
   -.133E+03 -.230E+04 -.307E+03   0.133E+03 0.230E+04 0.306E+03   0.866E-01 0.240E+01 0.202E+00   -.175E-03 -.150E-03 -.121E-03
   0.925E+03 -.171E+04 -.135E+04   -.923E+03 0.171E+04 0.134E+04   -.213E+01 0.264E+01 0.406E+01   -.331E-03 -.180E-03 0.363E-04
   -.868E+03 -.368E+03 0.274E+03   0.866E+03 0.367E+03 -.274E+03   0.156E+01 0.239E+00 -.644E-01   0.399E-03 -.668E-04 -.816E-04
   0.125E+04 0.169E+04 -.128E+04   -.125E+04 -.169E+04 0.127E+04   -.378E+01 -.572E+01 0.312E+01   0.270E-03 0.447E-04 0.197E-03
   0.200E+04 0.355E+03 -.121E+04   -.199E+04 -.355E+03 0.121E+04   -.359E+01 -.143E+00 0.380E+01   0.161E-04 0.338E-03 0.185E-04
   0.618E+03 0.221E+04 -.237E+03   -.618E+03 -.221E+04 0.236E+03   -.718E-01 -.213E+01 0.141E+01   0.136E-03 0.179E-04 0.240E-03
   -.138E+04 -.845E+03 0.168E+04   0.138E+04 0.846E+03 -.168E+04   0.218E+01 -.295E+00 -.306E+01   0.262E-04 -.430E-03 -.413E-04
   -.137E+04 0.592E+03 0.185E+04   0.136E+04 -.590E+03 -.185E+04   0.330E+01 -.137E+01 -.473E+01   0.184E-03 -.209E-04 0.227E-03
   -.175E+03 0.231E+04 0.829E+03   0.175E+03 -.231E+04 -.826E+03   -.597E+00 -.737E+01 -.212E+01   0.382E-04 -.145E-04 0.128E-03
   0.456E+03 -.106E+04 0.466E+03   -.456E+03 0.106E+04 -.466E+03   -.402E+00 0.133E+01 -.602E+00   -.460E-03 0.157E-03 -.142E-03
   -.227E+03 0.891E+03 0.368E+03   0.226E+03 -.889E+03 -.368E+03   0.739E+00 -.144E+01 -.201E+00   0.180E-03 -.183E-03 -.594E-05
   0.573E+03 -.213E+04 0.995E+03   -.570E+03 0.213E+04 -.992E+03   -.330E+01 0.637E+01 -.265E+01   -.329E-03 -.109E-03 -.733E-04
   0.108E+04 0.171E+03 0.544E+03   -.108E+04 -.171E+03 -.543E+03   -.141E+01 -.263E+00 -.788E+00   -.522E-03 0.182E-03 -.960E-04
   -.179E+03 0.142E+04 0.184E+04   0.177E+03 -.141E+04 -.184E+04   0.172E+01 -.114E+01 -.304E+01   0.240E-03 0.247E-03 -.747E-05
   0.145E+04 -.194E+04 -.149E+03   -.144E+04 0.193E+04 0.150E+03   -.483E+01 0.397E+01 -.658E+00   -.321E-03 -.180E-03 -.201E-03
   0.154E+04 -.769E+03 -.648E+03   -.154E+04 0.768E+03 0.648E+03   -.132E+01 0.640E+00 0.456E+00   -.214E-03 -.919E-05 -.705E-04
   -.390E+02 -.146E+04 0.189E+04   0.406E+02 0.146E+04 -.189E+04   -.153E+01 0.231E+01 -.400E+01   -.353E-03 -.218E-03 -.755E-04
   -.132E+03 -.221E+02 0.127E+04   0.132E+03 0.221E+02 -.127E+04   0.258E+00 0.146E-01 -.218E+01   0.403E-04 0.328E-04 -.366E-03
   0.184E+04 0.144E+04 -.395E+02   -.184E+04 -.143E+04 0.395E+02   -.201E+01 -.147E+01 -.772E-01   0.369E-04 0.261E-03 -.112E-03
   0.108E+04 0.175E+04 0.106E+04   -.108E+04 -.174E+04 -.106E+04   -.855E+00 -.236E+01 -.112E+01   -.139E-03 0.128E-03 -.857E-04
   -.103E+03 -.122E+03 0.239E+04   0.102E+03 0.122E+03 -.238E+04   0.896E+00 0.315E-01 -.805E+01   -.152E-03 0.101E-03 0.301E-03
   0.130E+04 -.822E+03 0.180E+04   -.130E+04 0.820E+03 -.180E+04   -.312E+01 0.206E+01 -.424E+01   -.585E-04 -.777E-04 -.186E-03
   0.201E+04 -.111E+04 0.736E+03   -.200E+04 0.111E+04 -.733E+03   -.502E+01 0.286E+01 -.221E+01   -.150E-03 -.294E-04 0.102E-03
   0.107E+04 0.646E+03 0.204E+04   -.106E+04 -.646E+03 -.204E+04   -.259E+01 0.439E+00 -.419E+01   -.143E-03 0.425E-03 0.734E-04
   0.203E+04 0.600E+03 0.119E+04   -.202E+04 -.599E+03 -.119E+04   -.676E+01 -.638E+00 -.300E+01   -.487E-04 0.317E-03 0.223E-04
   0.240E+04 -.712E+02 -.366E+02   -.240E+04 0.696E+02 0.374E+02   -.587E+01 0.171E+01 -.802E+00   0.126E-03 0.349E-03 -.209E-03
 -----------------------------------------------------------------------------------------------
   0.371E+01 -.247E+01 0.247E+01   0.364E-11 0.767E-12 0.230E-11   -.378E+01 0.242E+01 -.247E+01   -.726E-03 -.238E-03 -.588E-03
 
 
 POSITION                                       TOTAL-FORCE (eV/Angst)
 -----------------------------------------------------------------------------------
     13.38576     12.38894     14.08527        -0.027730     -0.013942     -0.030509
     14.78214     11.81792     12.04992        -0.023026     -0.001977      0.001091
     14.85045     10.46769     14.05676         0.009893      0.016844     -0.021446
     12.46774     10.30759     15.17869        -0.018539      0.004064      0.015351
     13.45276     13.91953     12.09123         0.025640      0.020835     -0.003451
     13.74310      8.35773     13.89621         0.006989      0.010257     -0.004812
     14.66395      9.37513     11.69728         0.012157     -0.024046     -0.007080
     11.10027     12.42029     15.10543        -0.003614     -0.023596     -0.006715
     12.15449     14.50710     14.08856         0.018360     -0.009138     -0.040793
     14.78447     13.30783     10.07998        -0.021052      0.018542     -0.018345
     11.34104      8.51114     13.79753         0.015820      0.000716      0.001169
     11.33673     12.54866     12.65384        -0.000506     -0.000438     -0.018824
      9.97806     10.27348     14.93520        -0.003470      0.010866      0.019969
     10.14042     10.25587     12.47547         0.003352      0.001435      0.007424
     12.67505     10.37223     12.71723        -0.007516     -0.011961     -0.002330
     13.55798      8.72910      9.49018         0.002457     -0.014567      0.013304
      8.68074     12.33160     14.85753        -0.027605      0.010902     -0.002594
     14.64467     10.88300      9.66053         0.010772      0.017878      0.002237
     12.71006      7.87040     11.76708        -0.015768      0.017375     -0.019382
     12.58305     14.35344      9.78993        -0.001038     -0.011323     -0.005520
     11.28406     15.04541     11.80145        -0.025701     -0.015287     -0.000499
      9.79885     14.20766     13.68673         0.030633      0.000728      0.027297
     12.72383     11.95750     10.70632         0.008437     -0.004923      0.003004
      8.91222      8.33513     13.64602        -0.018556      0.009529     -0.004625
      7.84478     10.48341     13.43705         0.017858      0.013237      0.020289
     10.23533      7.80932     11.65457        -0.011768     -0.014843     -0.001015
     13.45806     12.54705      8.16439         0.027233      0.001395      0.029956
     13.59472     10.23755      7.47551        -0.019240      0.016434      0.012284
     11.58106      7.26682      9.64829         0.013092     -0.013513     -0.021499
     10.47567     13.08460     10.35744        -0.002227     -0.001431     -0.009202
     11.54401      9.64812     10.53043         0.002538     -0.024121      0.010904
     10.26748     15.23967      9.39267         0.004489     -0.027892     -0.027720
      9.35671     10.91465     10.20878        -0.006096      0.003847      0.017429
     11.58196      8.99071      7.91700         0.025038      0.011906      0.024257
      8.92438     14.77349     11.46021        -0.032165     -0.026597      0.003391
      8.83621     12.41964     12.30710         0.010588     -0.009551      0.012139
     11.34609     13.65891      7.80360         0.012190     -0.000097     -0.003858
     11.41487     11.30906      8.79680         0.000726     -0.008460      0.005956
      8.10017      9.00920     11.37765         0.003609      0.004694      0.000496
      9.50423      8.54586      9.38092        -0.010952      0.009261     -0.028903
     11.54680     11.40553      6.51332         0.000248      0.000693      0.025268
      9.31746     12.45590      8.11994         0.018657     -0.031883      0.019525
      7.99469     12.99653     10.01744        -0.022431      0.023097      0.031146
      9.50704     10.15537      7.55115         0.005512     -0.001060     -0.035233
      7.50362     10.05901      9.01781        -0.007714      0.038391     -0.005551
      6.98540     11.11787     11.22617         0.020425      0.027718      0.016019
 -----------------------------------------------------------------------------------
    total drift:                               -0.071080     -0.052584     -0.006169


--------------------------------------------------------------------------------------------------------



  FREE ENERGIE OF THE ION-ELECTRON SYSTEM (eV)
  ---------------------------------------------------
  free  energy   TOTEN  =      -136.70398041 eV

  energy  without entropy=     -136.70398041  energy(sigma->0) =     -136.70398041
 


--------------------------------------------------------------------------------------------------------


    POTLOK:  cpu time    0.3400: real time    0.3404


--------------------------------------------------------------------------------------------------------




--------------------------------------------------------------------------------------------------------


  
 reached required accuracy - stopping structural energy minimisation
     LOOP+:  cpu time  553.0560: real time  553.4892
    4ORBIT:  cpu time    0.0000: real time    0.0000
 


 total charge     
 
# of ion       s       p       d       tot
------------------------------------------
    1        0.449   0.298   9.211   9.958
    2        0.447   0.296   9.209   9.951
    3        0.488   0.199   9.236   9.923
    4        0.464   0.210   9.231   9.905
    5        0.460   0.286   9.215   9.961
    6        0.487   0.200   9.236   9.924
    7        0.442   0.233   9.237   9.912
    8        0.454   0.266   9.205   9.925
    9        0.473   0.206   9.245   9.924
   10        0.471   0.214   9.242   9.927
   11        0.452   0.301   9.210   9.962
   12        0.458   0.349   9.197  10.004
   13        0.453   0.269   9.204   9.926
   14        0.460   0.350   9.196  10.006
   15        0.434   0.355   9.208   9.997
   16        0.448   0.259   9.219   9.926
   17        0.501   0.170   9.239   9.910
   18        0.448   0.265   9.217   9.930
   19        0.447   0.295   9.209   9.950
   20        0.432   0.297   9.209   9.938
   21        0.452   0.274   9.208   9.934
   22        0.452   0.261   9.228   9.941
   23        0.464   0.367   9.191  10.021
   24        0.473   0.207   9.246   9.926
   25        0.452   0.262   9.228   9.941
   26        0.461   0.288   9.214   9.962
   27        0.450   0.270   9.220   9.940
   28        0.496   0.186   9.231   9.913
   29        0.471   0.216   9.243   9.930
   30        0.447   0.383   9.189  10.020
   31        0.461   0.363   9.191  10.015
   32        0.465   0.175   9.247   9.887
   33        0.448   0.384   9.191  10.024
   34        0.452   0.271   9.218   9.941
   35        0.462   0.219   9.244   9.925
   36        0.437   0.344   9.189   9.970
   37        0.451   0.252   9.232   9.934
   38        0.474   0.400   9.199  10.073
   39        0.451   0.275   9.209   9.935
   40        0.431   0.295   9.210   9.937
   41        0.458   0.179   9.241   9.878
   42        0.434   0.252   9.246   9.931
   43        0.442   0.237   9.246   9.926
   44        0.451   0.252   9.233   9.936
   45        0.464   0.176   9.245   9.885
   46        0.465   0.218   9.243   9.926
--------------------------------------------------
tot         21.032  12.322 424.155 457.509
 


 magnetization (x)
 
# of ion       s       p       d       tot
------------------------------------------
    1        0.000   0.000  -0.000  -0.000
    2        0.000   0.000  -0.000   0.000
    3        0.000   0.000  -0.000  -0.000
    4       -0.000   0.000  -0.000  -0.000
    5        0.000   0.000  -0.000  -0.000
    6        0.000   0.000  -0.000  -0.000
    7        0.000  -0.000   0.000   0.000
    8        0.000   0.000  -0.000   0.000
    9        0.000   0.000  -0.000   0.000
   10       -0.000  -0.000   0.000  -0.000
   11        0.000   0.000  -0.000  -0.000
   12        0.000  -0.000   0.000   0.000
   13        0.000   0.000  -0.000   0.000
   14        0.000  -0.000   0.000   0.000
   15        0.000  -0.000   0.000   0.000
   16       -0.000  -0.000   0.000   0.000
   17        0.000   0.000  -0.000   0.000
   18       -0.000  -0.000   0.000   0.000
   19        0.000   0.000  -0.000   0.000
   20       -0.000  -0.000   0.000   0.000
   21        0.000   0.000  -0.000   0.000
   22        0.000   0.000  -0.000   0.000
   23       -0.000  -0.000  -0.000  -0.000
   24        0.000   0.000  -0.000   0.000
   25        0.000   0.000  -0.000   0.000
   26        0.000   0.000  -0.000  -0.000
   27       -0.000  -0.000   0.000   0.000
   28       -0.000  -0.000   0.000   0.000
   29       -0.000  -0.000   0.000  -0.000
   30       -0.000  -0.000  -0.000  -0.000
   31       -0.000  -0.000  -0.000  -0.000
   32       -0.000  -0.000   0.000   0.000
   33       -0.000  -0.000  -0.000  -0.000
   34       -0.000  -0.000   0.000   0.000
   35        0.000   0.000  -0.000   0.000
   36        0.000   0.000  -0.000   0.000
   37        0.000  -0.000   0.000   0.000
   38       -0.000  -0.000  -0.000  -0.000
   39        0.000   0.000  -0.000   0.000
   40       -0.000  -0.000   0.000   0.000
   41        0.000  -0.000   0.000   0.000
   42       -0.000  -0.000   0.000   0.000
   43        0.000   0.000   0.000   0.000
   44        0.000  -0.000   0.000   0.000
   45       -0.000  -0.000   0.000   0.000
   46       -0.000   0.000  -0.000   0.000
--------------------------------------------------
tot          0.000   0.000   0.000   0.000
 

 total amount of memory used by VASP MPI-rank0    81143. kBytes
=======================================================================

   base      :      30000. kBytes
   nonl-proj :       5251. kBytes
   fftplans  :       7877. kBytes
   grid      :      20041. kBytes
   one-center:         77. kBytes
   wavefun   :      17897. kBytes
 
  
  
 General timing and accounting informations for this job:
 ========================================================
  
                  Total CPU time used (sec):      561.924
                            User time (sec):      558.532
                          System time (sec):        3.392
                         Elapsed time (sec):      562.374
  
                   Maximum memory used (kb):       40032.
                   Average memory used (kb):           0.
  
                          Minor page faults:        17474
                          Major page faults:           25
                 Voluntary context switches:          527
