 vasp.5.4.4.18Apr17-6-g9f103f2a35 (build Jan 23 2020 13:04:52) gamma-only       
  
 executed on           IFC91_ompi date 2020.12.30  14:36:08
 running on   44 total cores
 distrk:  each k-point on   44 cores,    1 groups
 distr:  one band on NCORES_PER_BAND=  11 cores,    4 groups


--------------------------------------------------------------------------------------------------------


 INCAR:
 POTCAR:    PAW_PBE Cu 22Jun2005                  
 POTCAR:    PAW_PBE Cu 22Jun2005                  
   VRHFIN =Cu: d10 p1                                                           
   LEXCH  = PE                                                                  
   EATOM  =  1390.9808 eV,  102.2342 Ry                                         
                                                                                
   TITEL  = PAW_PBE Cu 22Jun2005                                                
   LULTRA =        F    use ultrasoft PP ?                                      
   IUNSCR =        1    unscreen: 0-lin 1-nonlin 2-no                           
   RPACOR =    2.000    partial core radius                                     
   POMASS =   63.546; ZVAL   =   11.000    mass and valenz                      
   RCORE  =    2.300    outmost cutoff radius                                   
   RWIGS  =    2.200; RWIGS  =    1.164    wigner-seitz radius (au A)           
   ENMAX  =  295.446; ENMIN  =  221.585 eV                                      
   ICORE  =        3    local potential                                         
   LCOR   =        T    correct aug charges                                     
   LPAW   =        T    paw PP                                                  
   EAUG   =  586.980                                                            
   DEXC   =    0.000                                                            
   RMAX   =    2.344    core radius for proj-oper                               
   RAUG   =    1.300    factor for augmentation sphere                          
   RDEP   =    2.302    radius for radial grids                                 
   RDEPT  =    1.771    core radius for aug-charge                              
                                                                                
   Atomic configuration                                                         
    9 entries                                                                   
     n  l   j            E        occ.                                          
     1  0  0.50     -8850.2468   2.0000                                         
     2  0  0.50     -1062.3498   2.0000                                         
     2  1  1.50      -916.8226   6.0000                                         
     3  0  0.50      -114.6929   2.0000                                         
     3  1  1.50       -72.1325   6.0000                                         
     3  2  2.50        -5.0394  10.0000                                         
     4  0  0.50        -4.6097   1.0000                                         
     4  1  0.50        -4.0817   0.0000                                         
     4  3  2.50        -1.3606   0.0000                                         
   Description                                                                  
     l       E           TYP  RCUT    TYP  RCUT                                 
     2     -5.0393973     23  2.200                                             
     2     10.8846608     23  2.200                                             
     0     -4.6097109     23  2.200                                             
     0      8.2520465     23  2.200                                             
     1     -2.7211652     23  2.200                                             
     1     21.7055443     23  2.200                                             
     3      2.7211652     23  2.300                                             
  local pseudopotential read in
  partial core-charges read in
  partial kinetic energy density read in
  atomic valenz-charges read in
  non local Contribution for L=           2  read in
    real space projection operators read in
  non local Contribution for L=           2  read in
    real space projection operators read in
  non local Contribution for L=           0  read in
    real space projection operators read in
  non local Contribution for L=           0  read in
    real space projection operators read in
  non local Contribution for L=           1  read in
    real space projection operators read in
  non local Contribution for L=           1  read in
    real space projection operators read in
    PAW grid and wavefunctions read in
 
   number of l-projection  operators is LMAX  =           6
   number of lm-projection operators is LMMAX =          18
 

 ----------------------------------------------------------------------------- 
|                                                                             |
|  ADVICE TO THIS USER RUNNING 'VASP/VAMP'   (HEAR YOUR MASTER'S VOICE ...):  |
|                                                                             |
|      You have a (more or less) 'large supercell' and for larger cells       |
|      it might be more efficient to use real space projection opertators     |
|      So try LREAL= Auto  in the INCAR   file.                               |
|      Mind:          For very  accurate calculation you might also keep the  |
|      reciprocal projection scheme          (i.e. LREAL=.FALSE.)             |
|                                                                             |
 ----------------------------------------------------------------------------- 

  PAW_PBE Cu 22Jun2005                  :
 energy of atom  1       EATOM=-1390.9808
 kinetic energy error for atom=    0.0452 (will be added to EATOM!!)
 
 
 POSCAR: unknown system                          
  positions in direct lattice
  No initial velocities read in
 exchange correlation table for  LEXCH =        8
   RHO(1)=    0.500       N(1)  =     2000
   RHO(2)=  100.500       N(2)  =     4000
 


--------------------------------------------------------------------------------------------------------


 ion  position               nearest neighbor table
   1  0.660  0.570  0.432-  16 2.43   8 2.47   3 2.47   5 2.53   2 2.55   4 2.57   7 2.61
   2  0.638  0.477  0.382-   9 2.41   5 2.43   6 2.46   1 2.55   4 2.55  11 2.57  18 2.57  16 2.60

   3  0.658  0.563  0.536-   5 2.40  13 2.41  10 2.45   1 2.47  12 2.48   7 2.48
   4  0.586  0.567  0.352-   8 2.43  16 2.45   9 2.45  20 2.50   2 2.55  22 2.55   1 2.57
   5  0.657  0.476  0.483-   3 2.40   6 2.42   2 2.43  12 2.47   1 2.53  14 2.54  15 2.57  16 2.64
                            18 2.65
   6  0.668  0.390  0.430-  17 2.39   5 2.42   2 2.46  11 2.53  18 2.53  14 2.69
   7  0.586  0.625  0.492-   8 2.38  13 2.44   3 2.48  22 2.53  16 2.53  19 2.54   1 2.61
   8  0.610  0.655  0.399-   7 2.38   4 2.43  22 2.46   1 2.47
   9  0.562  0.473  0.315-   2 2.41  23 2.41  20 2.44   4 2.45  11 2.47
  10  0.648  0.559  0.639-  13 2.41  12 2.41   3 2.45  21 2.46
  11  0.592  0.382  0.355-  18 2.37   9 2.47   6 2.53  26 2.53   2 2.57  23 2.58
  12  0.651  0.472  0.587-  10 2.41  15 2.45   5 2.47   3 2.48  14 2.49  21 2.50
  13  0.567  0.575  0.580-  25 2.41   3 2.41  10 2.41  21 2.43   7 2.44  19 2.46  15 2.58  28 2.63

  14  0.618  0.389  0.531-  17 2.44  15 2.46  12 2.49  18 2.51  30 2.52   5 2.54   6 2.69  32 2.78

  15  0.562  0.476  0.535-  28 2.41  16 2.45  12 2.45  32 2.46  14 2.46  18 2.51  27 2.53   5 2.57
                            13 2.58  21 2.65
  16  0.567  0.530  0.447-   1 2.43  15 2.45   4 2.45  27 2.47   7 2.53  22 2.55  18 2.56   2 2.60
                            20 2.60  19 2.62   5 2.64
  17  0.600  0.320  0.456-  26 2.37   6 2.39  14 2.44  30 2.52  18 2.54
  18  0.568  0.422  0.444-  11 2.37  30 2.46  15 2.51  14 2.51   6 2.53  17 2.54  23 2.56  16 2.56
                            27 2.57   2 2.57   5 2.65  26 2.66
  19  0.491  0.580  0.510-  13 2.46  28 2.47  24 2.49  22 2.51   7 2.54  35 2.54  31 2.60  27 2.61
                            16 2.62  37 2.63  25 2.78
  20  0.491  0.525  0.368-  31 2.43  23 2.44   9 2.44   4 2.50  22 2.51  34 2.52  16 2.60  27 2.63

  21  0.566  0.496  0.645-  33 2.42  13 2.43  10 2.46  29 2.48  12 2.50  32 2.51  28 2.54  15 2.65

  22  0.514  0.618  0.414-   8 2.46  24 2.47  19 2.51  20 2.51   7 2.53  31 2.53   4 2.55  16 2.55

  23  0.491  0.422  0.368-   9 2.41  26 2.43  20 2.44  36 2.46  34 2.49  18 2.56  11 2.58  27 2.75

  24  0.436  0.660  0.469-  31 2.39  40 2.45  35 2.47  22 2.47  19 2.49
  25  0.480  0.602  0.625-  13 2.41  35 2.42  28 2.43  29 2.44  39 2.49  19 2.78
  26  0.514  0.330  0.407-  17 2.37  36 2.41  23 2.43  11 2.53  30 2.56  18 2.66
  27  0.478  0.479  0.468-  34 2.46  16 2.47  37 2.49  36 2.51  15 2.53  38 2.56  18 2.57  19 2.61
                            20 2.63  23 2.75  31 2.76
  28  0.479  0.508  0.584-  15 2.41  25 2.43  41 2.45  19 2.47  39 2.49  37 2.49  38 2.54  21 2.54
                            29 2.56  13 2.63  32 2.71
  29  0.477  0.523  0.691-  25 2.44  41 2.45  33 2.46  21 2.48  39 2.49  28 2.56
  30  0.518  0.360  0.511-  18 2.46  32 2.46  38 2.48  36 2.51  14 2.52  17 2.52  26 2.56
  31  0.419  0.570  0.427-  24 2.39  20 2.43  34 2.46  42 2.50  37 2.52  40 2.52  22 2.53  19 2.60
                            27 2.76
  32  0.527  0.406  0.603-  15 2.46  30 2.46  33 2.47  21 2.51  38 2.53  41 2.60  28 2.71  14 2.78

  33  0.517  0.429  0.705-  21 2.42  41 2.43  29 2.46  32 2.47
  34  0.403  0.472  0.397-  27 2.46  31 2.46  42 2.48  23 2.49  43 2.51  20 2.52  36 2.53
  35  0.403  0.619  0.559-  25 2.42  40 2.42  24 2.47  44 2.47  39 2.49  37 2.51  19 2.54
  36  0.437  0.384  0.447-  26 2.41  43 2.43  23 2.46  38 2.48  30 2.51  27 2.51  34 2.53
  37  0.397  0.521  0.519-  45 2.45  43 2.45  27 2.49  28 2.49  44 2.50  35 2.51  31 2.52  42 2.56
                            19 2.63  39 2.73  38 2.73
  38  0.437  0.417  0.546-  41 2.47  36 2.48  30 2.48  43 2.49  32 2.53  28 2.54  45 2.55  27 2.56
                            37 2.73
  39  0.392  0.544  0.632-  45 2.48  28 2.49  25 2.49  44 2.49  29 2.49  35 2.49  41 2.66  37 2.73

  40  0.341  0.621  0.478-  35 2.42  46 2.43  24 2.45  42 2.46  31 2.52  44 2.54
  41  0.433  0.441  0.648-  33 2.43  29 2.45  28 2.45  38 2.47  45 2.52  32 2.60  39 2.66
  42  0.324  0.526  0.439-  47 2.44  40 2.46  46 2.47  34 2.48  31 2.50  43 2.53  37 2.56
  43  0.355  0.434  0.483-  36 2.43  47 2.44  37 2.45  38 2.49  34 2.51  42 2.53  45 2.54
  44  0.314  0.566  0.566-  47 2.41  46 2.45  35 2.47  39 2.49  37 2.50  40 2.54  45 2.66
  45  0.348  0.461  0.587-  47 2.45  37 2.45  39 2.48  41 2.52  43 2.54  38 2.55  44 2.66
  46  0.248  0.579  0.487-  47 2.42  40 2.43  44 2.45  42 2.47
  47  0.273  0.485  0.520-  44 2.41  46 2.42  43 2.44  42 2.44  45 2.45
 
  LATTYP: Found a simple cubic cell.
 ALAT       =    23.6744100000
  
  Lattice vectors:
  
 A1 = (  23.6744100000,   0.0000000000,   0.0000000000)
 A2 = (   0.0000000000,  23.6744100000,   0.0000000000)
 A3 = (   0.0000000000,   0.0000000000,  23.6744100000)


Analysis of symmetry for initial positions (statically):
=====================================================================
 Subroutine PRICEL returns:
 Original cell was already a primitive cell.
 

 Routine SETGRP: Setting up the symmetry group for a 
 simple cubic supercell.


 Subroutine GETGRP returns: Found  1 space group operations
 (whereof  1 operations were pure point group operations)
 out of a pool of 48 trial point group operations.


The static configuration has the point symmetry C_1 .


Analysis of symmetry for dynamics (positions and initial velocities):
=====================================================================
 Subroutine PRICEL returns:
 Original cell was already a primitive cell.
 

 Routine SETGRP: Setting up the symmetry group for a 
 simple cubic supercell.


 Subroutine GETGRP returns: Found  1 space group operations
 (whereof  1 operations were pure point group operations)
 out of a pool of 48 trial point group operations.


The dynamic configuration has the point symmetry C_1 .


Analysis of structural, dynamic, and magnetic symmetry:
=====================================================================
 Subroutine PRICEL returns:
 Original cell was already a primitive cell.
 

 Routine SETGRP: Setting up the symmetry group for a 
 simple cubic supercell.


 Subroutine GETGRP returns: Found  1 space group operations
 (whereof  1 operations were pure point group operations)
 out of a pool of 48 trial point group operations.


The magnetic configuration has the point symmetry C_1 .


 Subroutine INISYM returns: Found  1 space group operations
 (whereof  1 operations are pure point group operations),
 and found     1 'primitive' translations

 
 
 KPOINTS: Gamma-point only                        
  k-points in reciprocal lattice
Space group operators:
 irot       det(A)        alpha          n_x          n_y          n_z        tau_x        tau_y        tau_z
    1     1.000000     0.000000     1.000000     0.000000     0.000000     0.000000     0.000000     0.000000


--------------------------------------------------------------------------------------------------------




 Dimension of arrays:
   k-points           NKPTS =      1   k-points in BZ     NKDIM =      1   number of bands    NBANDS=    384
   number of dos      NEDOS =    301   number of ions     NIONS =     47
   non local maximal  LDIM  =      6   non local SUM 2l+1 LMDIM =     18
   total plane-waves  NPLWV = ******
   max r-space proj   IRMAX =      1   max aug-charges    IRDMAX=   2382
   dimension x,y,z NGX =   100 NGY =  100 NGZ =  100
   dimension x,y,z NGXF=   200 NGYF=  200 NGZF=  200
   support grid    NGXF=   200 NGYF=  200 NGZF=  200
   ions per type =              47
   NGX,Y,Z   is equivalent  to a cutoff of   7.02,  7.02,  7.02 a.u.
   NGXF,Y,Z  is equivalent  to a cutoff of  14.04, 14.04, 14.04 a.u.

 SYSTEM =  unknown system                          
 POSCAR =  unknown system                          

 Startparameter for this run:
   NWRITE =      2    write-flag & timer
   PREC   = normal    normal or accurate (medium, high low for compatibility)
   ISTART =      0    job   : 0-new  1-cont  2-samecut
   ICHARG =      2    charge: 1-file 2-atom 10-const
   ISPIN  =      2    spin polarized calculation?
   LNONCOLLINEAR =      F non collinear calculations
   LSORBIT =      F    spin-orbit coupling
   INIWAV =      1    electr: 0-lowe 1-rand  2-diag
   LASPH  =      F    aspherical Exc in radial PAW
   METAGGA=      F    non-selfconsistent MetaGGA calc.

 Electronic Relaxation 1
   ENCUT  =  295.4 eV  21.71 Ry    4.66 a.u.  33.18 33.18 33.18*2*pi/ulx,y,z
   ENINI  =  295.4     initial cutoff
   ENAUG  =  587.0 eV  augmentation charge cutoff
   NELM   =     60;   NELMIN=  2; NELMDL= -5     # of ELM steps 
   EDIFF  = 0.1E-04   stopping-criterion for ELM
   LREAL  =      F    real-space projection
   NLSPLINE    = F    spline interpolate recip. space projectors
   LCOMPAT=      F    compatible to vasp.4.4
   GGA_COMPAT  = T    GGA compatible to vasp.4.4-vasp.4.6
   LMAXPAW     = -100 max onsite density
   LMAXMIX     =    2 max onsite mixed and CHGCAR
   VOSKOWN=      0    Vosko Wilk Nusair interpolation
   ROPT   =    0.00000
 Ionic relaxation
   EDIFFG = -.1E+00   stopping-criterion for IOM
   NSW    =    101    number of steps for IOM
   NBLOCK =      1;   KBLOCK =    101    inner block; outer block 
   IBRION =      2    ionic relax: 0-MD 1-quasi-New 2-CG
   NFREE  =      1    steps in history (QN), initial steepest desc. (CG)
   ISIF   =      2    stress and relaxation
   IWAVPR =     11    prediction:  0-non 1-charg 2-wave 3-comb
   ISYM   =      2    0-nonsym 1-usesym 2-fastsym
   LCORR  =      T    Harris-Foulkes like correction to forces

   POTIM  = 0.5000    time-step for ionic-motion
   TEIN   =    0.0    initial temperature
   TEBEG  =    0.0;   TEEND  =   0.0 temperature during run
   SMASS  =  -3.00    Nose mass-parameter (am)
   estimated Nose-frequenzy (Omega)   =  0.10E-29 period in steps =****** mass=  -0.128E-25a.u.
   SCALEE = 1.0000    scale energy and forces
   NPACO  =    256;   APACO  = 16.0  distance and # of slots for P.C.
   PSTRESS=    0.0 pullay stress

  Mass of Ions in am
   POMASS =  63.55
  Ionic Valenz
   ZVAL   =  11.00
  Atomic Wigner-Seitz radii
   RWIGS  =  -1.00
  virtual crystal weights 
   VCA    =   1.00
   NELECT =     517.0000    total number of electrons
   NUPDOWN=      -1.0000    fix difference up-down

 DOS related values:
   EMIN   =  10.00;   EMAX   =-10.00  energy-range for DOS
   EFERMI =   0.00
   ISMEAR =     0;   SIGMA  =   0.00  broadening in eV -4-tet -1-fermi 0-gaus

 Electronic relaxation 2 (details)
   IALGO  =     38    algorithm
   LDIAG  =      T    sub-space diagonalisation (order eigenvalues)
   LSUBROT=      F    optimize rotation matrix (better conditioning)
   TURBO    =      0    0=normal 1=particle mesh
   IRESTART =      0    0=no restart 2=restart with 2 vectors
   NREBOOT  =      0    no. of reboots
   NMIN     =      0    reboot dimension
   EREF     =   0.00    reference energy to select bands
   IMIX   =      4    mixing-type and parameters
     AMIX     =   0.40;   BMIX     =  1.00
     AMIX_MAG =   1.60;   BMIX_MAG =  1.00
     AMIN     =   0.10
     WC   =   100.;   INIMIX=   1;  MIXPRE=   1;  MAXMIX= -45

 Intra band minimization:
   WEIMIN = 0.0010     energy-eigenvalue tresh-hold
   EBREAK =  0.65E-08  absolut break condition
   DEPER  =   0.30     relativ break condition  

   TIME   =   0.40     timestep for ELM

  volume/ion in A,a.u.               =     282.32      1905.18
  Fermi-wavevector in a.u.,A,eV,Ry     =   0.554999  1.048797  4.190926  0.308024
  Thomas-Fermi vector in A             =   1.588547
 
 Write flags
   LWAVE        =      F    write WAVECAR
   LDOWNSAMPLE  =      F    k-point downsampling of WAVECAR
   LCHARG       =      F    write CHGCAR
   LVTOT        =      F    write LOCPOT, total local potential
   LVHAR        =      F    write LOCPOT, Hartree potential only
   LELF         =      F    write electronic localiz. function (ELF)
   LORBIT       =     11    0 simple, 1 ext, 2 COOP (PROOUT), +10 PAW based schemes


 Dipole corrections
   LMONO  =      F    monopole corrections only (constant potential shift)
   LDIPOL =      F    correct potential (dipole corrections)
   IDIPOL =      0    1-x, 2-y, 3-z, 4-all directions 
   EPSILON=  1.0000000 bulk dielectric constant

 Exchange correlation treatment:
   GGA     =    PE    GGA type
   LEXCH   =     8    internal setting for exchange type
   VOSKOWN=      0    Vosko Wilk Nusair interpolation
   LHFCALC =     F    Hartree Fock is set to
   LHFONE  =     F    Hartree Fock one center treatment
   AEXX    =    0.0000 exact exchange contribution

 Linear response parameters
   LEPSILON=     F    determine dielectric tensor
   LRPA    =     F    only Hartree local field effects (RPA)
   LNABLA  =     F    use nabla operator in PAW spheres
   LVEL    =     F    velocity operator in full k-point grid
   LINTERFAST=   F  fast interpolation
   KINTER  =     0    interpolate to denser k-point grid
   CSHIFT  =0.1000    complex shift for real part using Kramers Kronig
   OMEGAMAX=  -1.0    maximum frequency
   DEG_THRESHOLD= 0.2000000E-02 threshold for treating states as degnerate
   RTIME   =   -0.100 relaxation time in fs
  (WPLASMAI=    0.000 imaginary part of plasma frequency in eV, 0.658/RTIME)
   DFIELD  = 0.0000000 0.0000000 0.0000000 field for delta impulse in time
 
 Orbital magnetization related:
   ORBITALMAG=     F  switch on orbital magnetization
   LCHIMAG   =     F  perturbation theory with respect to B field
   DQ        =  0.001000  dq finite difference perturbation B field
   LLRAUG    =     F  two centre corrections for induced B field



--------------------------------------------------------------------------------------------------------


 conjugate gradient relaxation of ions
 charge density and potential will be updated during run
 spin polarized calculation
 Variant of blocked Davidson
 Davidson routine will perform the subspace rotation
 perform sub-space diagonalisation
    after iterative eigenvector-optimisation
 modified Broyden-mixing scheme, WC =      100.0
 initial mixing is a Kerker type mixing with AMIX =  0.4000 and BMIX =      1.0000
 Hartree-type preconditioning will be used
 using additional bands          125
 reciprocal scheme for non local part
 use partial core corrections
 calculate Harris-corrections to forces 
   (improved forces if not selfconsistent)
 use gradient corrections 
 use of overlap-Matrix (Vanderbilt PP)
 Gauss-broadening in eV      SIGMA  =   0.00


--------------------------------------------------------------------------------------------------------


  energy-cutoff  :      295.45
  volume of cell :    13268.98
      direct lattice vectors                 reciprocal lattice vectors
    23.674410000  0.000000000  0.000000000     0.042239701  0.000000000  0.000000000
     0.000000000 23.674410000  0.000000000     0.000000000  0.042239701  0.000000000
     0.000000000  0.000000000 23.674410000     0.000000000  0.000000000  0.042239701

  length of vectors
    23.674410000 23.674410000 23.674410000     0.042239701  0.042239701  0.042239701


 
 k-points in units of 2pi/SCALE and weight: Gamma-point only                        
   0.00000000  0.00000000  0.00000000       1.000
 
 k-points in reciprocal lattice and weights: Gamma-point only                        
   0.00000000  0.00000000  0.00000000       1.000
 
 position of ions in fractional coordinates (direct lattice) 
   0.66009120  0.56976312  0.43183480
   0.63759646  0.47700882  0.38225599
   0.65751141  0.56271127  0.53610291
   0.58622737  0.56682106  0.35220144
   0.65732081  0.47609519  0.48305926
   0.66846965  0.38983986  0.42961292
   0.58608070  0.62535357  0.49199102
   0.60981457  0.65511307  0.39879243
   0.56174267  0.47338988  0.31458798
   0.64823417  0.55944359  0.63904948
   0.59208282  0.38223428  0.35549597
   0.65122826  0.47172799  0.58722467
   0.56679561  0.57535703  0.58023479
   0.61813581  0.38884479  0.53134802
   0.56204025  0.47610577  0.53502889
   0.56684145  0.53011164  0.44709958
   0.60039781  0.32039967  0.45625950
   0.56762343  0.42189104  0.44421029
   0.49061982  0.58020236  0.50991179
   0.49051877  0.52510632  0.36805651
   0.56625588  0.49555825  0.64507987
   0.51390444  0.61802484  0.41371179
   0.49122725  0.42221519  0.36750567
   0.43614359  0.66043822  0.46906401
   0.47955546  0.60232727  0.62482536
   0.51388128  0.33043181  0.40706886
   0.47849943  0.47871944  0.46827405
   0.47860749  0.50812635  0.58416867
   0.47665158  0.52342887  0.69116571
   0.51784087  0.35982392  0.51085849
   0.41922561  0.56999940  0.42700784
   0.52715468  0.40641609  0.60347891
   0.51725186  0.42890752  0.70498775
   0.40300082  0.47166334  0.39696770
   0.40338504  0.61905279  0.55903732
   0.43682302  0.38368119  0.44696889
   0.39696572  0.52128099  0.51893452
   0.43719883  0.41658584  0.54644011
   0.39230162  0.54422045  0.63201273
   0.34081715  0.62094419  0.47800678
   0.43272464  0.44069740  0.64766850
   0.32398482  0.52577049  0.43949809
   0.35481889  0.43352025  0.48336856
   0.31364697  0.56592534  0.56579991
   0.34769279  0.46098144  0.58703715
   0.24786548  0.57878540  0.48719513
   0.27320175  0.48495341  0.51950942
 
 position of ions in cartesian coordinates  (Angst):
  15.62726971 13.48880571 10.22343411
  15.09472001 11.29290238  9.04968503
  15.56619470 13.32185732 12.69192009
  13.87858711 13.41915417  8.33816129
  15.56168236 11.27127273 11.43614298
  15.82562457  9.22922868 10.17083241
  13.87511478 14.80487681 11.64759712
  14.43700015 15.50941542  9.44117549
  13.29892628 11.20722611  7.44768482
  15.34656152 13.24449692 15.12911940
  14.01721143  9.04917106  8.41615735
  15.41744483 11.16788184 13.90219760
  13.41855166 13.62123822 13.73671631
  14.63400060  9.20567098 12.57935088
  13.30597132 11.27152320 12.66649330
  13.41963689 12.55008031 10.58481877
  14.21406392  7.58527315 10.80167447
  13.43814981  9.98802146 10.51641653
  11.61513477 13.73594855 12.07186078
  11.61274247 12.43158231  8.71352072
  13.40577387 11.73204919 15.27188533
  12.16638441 14.63137345  9.79438254
  11.62951532  9.99569552  8.70047991
  10.32544217 15.63548520 11.10481369
  11.35319258 14.25974274 14.79237175
  12.16583611  7.82277815  9.63711509
  11.32819169 11.33340030 11.08611185
  11.33074995 12.02959154 13.82984860
  11.28444493 12.39186967 16.36294040
  12.25957707  8.51861901 12.09427334
   9.92491897 13.49439950 10.10915868
  12.48007603  9.62166115 14.28700714
  12.24563261 10.15413248 16.69016904
   9.54080664 11.16635129  9.39797609
   9.54990282 14.65570956 13.23487872
  10.34152727  9.08342580 10.58172476
   9.39792921 12.34101988 12.28546859
  10.35042435  9.86242398 12.93664720
   9.28750940 12.88409806 14.96252850
   8.06864494 14.70048734 11.31652849
  10.24450054 10.43325093 15.33316961
   7.67014946 12.44730615 10.40485798
   8.40012788 10.26333614 11.44346547
   7.42540696 13.39794853 13.39497905
   8.23142166 10.91346361 13.89775817
   5.86806900 13.70240286 11.53405726
   6.46789024 11.48098586 12.29907901
 


--------------------------------------------------------------------------------------------------------


 use parallel FFT for orbitals z direction half grid
 k-point  1 :   0.0000 0.0000 0.0000  plane waves:   76418

 maximum and minimum number of plane-waves per node :      6956     6939

 maximum number of plane-waves:     76418
 maximum index in each direction: 
   IXMAX=   33   IYMAX=   33   IZMAX=   33
   IXMIN=  -33   IYMIN=  -33   IZMIN=    0


 parallel 3D FFT for wavefunctions:
    minimum data exchange during FFTs selected (reduces bandwidth)
 parallel 3D FFT for charge:
    minimum data exchange during FFTs selected (reduces bandwidth)


 total amount of memory used by VASP MPI-rank0    89116. kBytes
=======================================================================

   base      :      30000. kBytes
   nonl-proj :       6218. kBytes
   fftplans  :       8817. kBytes
   grid      :      22544. kBytes
   one-center:         77. kBytes
   wavefun   :      21460. kBytes
 
     INWAV:  cpu time    0.0000: real time    0.0004
 Broyden mixing: mesh for mixing (old mesh)
   NGX = 67   NGY = 67   NGZ = 67
  (NGX  =200   NGY  =200   NGZ  =200)
  gives a total of 300763 points

 initial charge density was supplied:
 charge density of overlapping atoms calculated
 number of electron     517.0000000 magnetization     141.0000000
 keeping initial charge density in first step


--------------------------------------------------------------------------------------------------------


 Maximum index for augmentation-charges          200 (set IRDMAX)


--------------------------------------------------------------------------------------------------------


 First call to EWALD:  gamma=   0.075
 Maximum number of real-space cells 3x 3x 3
 Maximum number of reciprocal cells 3x 3x 3

    FEWALD:  cpu time    0.0000: real time    0.0018


--------------------------------------- Iteration      1(   1)  ---------------------------------------


    POTLOK:  cpu time    0.3880: real time    0.4045
    SETDIJ:  cpu time    0.0120: real time    0.0133
     EDDAV:  cpu time   13.4880: real time   13.4911
       DOS:  cpu time    0.0000: real time    0.0004
    --------------------------------------------
      LOOP:  cpu time   13.8880: real time   13.9093

 eigenvalue-minimisations  :  1616
 total energy-change (2. order) : 0.3340257E+04  (-0.1212555E+05)
 number of electron     517.0000000 magnetization     141.0000000
 augmentation part      517.0000000 magnetization     141.0000000

 Free energy of the ion-electron system (eV)
  ---------------------------------------------------
  alpha Z        PSCENC =       121.75041367
  Ewald energy   TEWEN  =    186217.29744949
  -Hartree energ DENC   =   -245902.66208626
  -exchange      EXHF   =         0.00000000
  -V(xc)+E(xc)   XCENC  =      2170.74304604
  PAW double counting   =     57679.20745073   -62646.10621227
  entropy T*S    EENTRO =        -0.00000000
  eigenvalues    EBANDS =       326.05404148
  atomic energy  EATOM  =     65373.97247892
  Solvation  Ediel_sol  =         0.00000000
  ---------------------------------------------------
  free energy    TOTEN  =      3340.25658180 eV

  energy without entropy =     3340.25658180  energy(sigma->0) =     3340.25658180


--------------------------------------------------------------------------------------------------------




--------------------------------------- Iteration      1(   2)  ---------------------------------------


     EDDAV:  cpu time   13.5840: real time   13.5968
       DOS:  cpu time    0.0000: real time    0.0003
    --------------------------------------------
      LOOP:  cpu time   13.5840: real time   13.5971

 eigenvalue-minimisations  :  1632
 total energy-change (2. order) :-0.3245140E+04  (-0.2989963E+04)
 number of electron     517.0000000 magnetization     141.0000000
 augmentation part      517.0000000 magnetization     141.0000000

 Free energy of the ion-electron system (eV)
  ---------------------------------------------------
  alpha Z        PSCENC =       121.75041367
  Ewald energy   TEWEN  =    186217.29744949
  -Hartree energ DENC   =   -245902.66208626
  -exchange      EXHF   =         0.00000000
  -V(xc)+E(xc)   XCENC  =      2170.74304604
  PAW double counting   =     57679.20745073   -62646.10621227
  entropy T*S    EENTRO =         0.00000000
  eigenvalues    EBANDS =     -2919.08609262
  atomic energy  EATOM  =     65373.97247892
  Solvation  Ediel_sol  =         0.00000000
  ---------------------------------------------------
  free energy    TOTEN  =        95.11644770 eV

  energy without entropy =       95.11644770  energy(sigma->0) =       95.11644770


--------------------------------------------------------------------------------------------------------




--------------------------------------- Iteration      1(   3)  ---------------------------------------


     EDDAV:  cpu time   15.0120: real time   15.0346
       DOS:  cpu time    0.0000: real time    0.0004
    --------------------------------------------
      LOOP:  cpu time   15.0120: real time   15.0350

 eigenvalue-minimisations  :  1856
 total energy-change (2. order) :-0.1879713E+03  (-0.1766855E+03)
 number of electron     517.0000000 magnetization     141.0000000
 augmentation part      517.0000000 magnetization     141.0000000

 Free energy of the ion-electron system (eV)
  ---------------------------------------------------
  alpha Z        PSCENC =       121.75041367
  Ewald energy   TEWEN  =    186217.29744949
  -Hartree energ DENC   =   -245902.66208626
  -exchange      EXHF   =         0.00000000
  -V(xc)+E(xc)   XCENC  =      2170.74304604
  PAW double counting   =     57679.20745073   -62646.10621227
  entropy T*S    EENTRO =         0.00000000
  eigenvalues    EBANDS =     -3107.05738153
  atomic energy  EATOM  =     65373.97247892
  Solvation  Ediel_sol  =         0.00000000
  ---------------------------------------------------
  free energy    TOTEN  =       -92.85484122 eV

  energy without entropy =      -92.85484122  energy(sigma->0) =      -92.85484122


--------------------------------------------------------------------------------------------------------




--------------------------------------- Iteration      1(   4)  ---------------------------------------


     EDDAV:  cpu time   15.2440: real time   15.2550
       DOS:  cpu time    0.0000: real time    0.0003
    --------------------------------------------
      LOOP:  cpu time   15.2440: real time   15.2553

 eigenvalue-minimisations  :  1888
 total energy-change (2. order) :-0.9348494E+01  (-0.9060188E+01)
 number of electron     517.0000000 magnetization     141.0000000
 augmentation part      517.0000000 magnetization     141.0000000

 Free energy of the ion-electron system (eV)
  ---------------------------------------------------
  alpha Z        PSCENC =       121.75041367
  Ewald energy   TEWEN  =    186217.29744949
  -Hartree energ DENC   =   -245902.66208626
  -exchange      EXHF   =         0.00000000
  -V(xc)+E(xc)   XCENC  =      2170.74304604
  PAW double counting   =     57679.20745073   -62646.10621227
  entropy T*S    EENTRO =         0.00000000
  eigenvalues    EBANDS =     -3116.40587508
  atomic energy  EATOM  =     65373.97247892
  Solvation  Ediel_sol  =         0.00000000
  ---------------------------------------------------
  free energy    TOTEN  =      -102.20333477 eV

  energy without entropy =     -102.20333477  energy(sigma->0) =     -102.20333477


--------------------------------------------------------------------------------------------------------




--------------------------------------- Iteration      1(   5)  ---------------------------------------


     EDDAV:  cpu time   15.2120: real time   15.2246
       DOS:  cpu time    0.0000: real time    0.0006
    CHARGE:  cpu time    0.2800: real time    0.2801
    MIXING:  cpu time    0.0120: real time    0.0101
    --------------------------------------------
      LOOP:  cpu time   15.5040: real time   15.5154

 eigenvalue-minimisations  :  1888
 total energy-change (2. order) :-0.3279823E+00  (-0.3269507E+00)
 number of electron     517.0000560 magnetization     129.4188174
 augmentation part      303.0561604 magnetization     123.0782480

 Broyden mixing:
  rms(total) = 0.12159E+02    rms(broyden)= 0.12158E+02
  rms(prec ) = 0.12298E+02
  weight for this iteration     100.00

 Free energy of the ion-electron system (eV)
  ---------------------------------------------------
  alpha Z        PSCENC =       121.75041367
  Ewald energy   TEWEN  =    186217.29744949
  -Hartree energ DENC   =   -245902.66208626
  -exchange      EXHF   =         0.00000000
  -V(xc)+E(xc)   XCENC  =      2170.74304604
  PAW double counting   =     57679.20745073   -62646.10621227
  entropy T*S    EENTRO =         0.00000000
  eigenvalues    EBANDS =     -3116.73385736
  atomic energy  EATOM  =     65373.97247892
  Solvation  Ediel_sol  =         0.00000000
  ---------------------------------------------------
  free energy    TOTEN  =      -102.53131704 eV

  energy without entropy =     -102.53131704  energy(sigma->0) =     -102.53131704


--------------------------------------------------------------------------------------------------------




--------------------------------------- Iteration      1(   6)  ---------------------------------------


    POTLOK:  cpu time    0.3720: real time    0.3877
    SETDIJ:  cpu time    0.0160: real time    0.0135
     EDDAV:  cpu time   13.6000: real time   13.6007
       DOS:  cpu time    0.0000: real time    0.0006
    CHARGE:  cpu time    0.2760: real time    0.2776
    MIXING:  cpu time    0.0120: real time    0.0108
    --------------------------------------------
      LOOP:  cpu time   14.2760: real time   14.2909

 eigenvalue-minimisations  :  1632
 total energy-change (2. order) : 0.2950320E+03  (-0.1874232E+03)
 number of electron     517.0000667 magnetization     121.0989483
 augmentation part      356.5972515 magnetization      80.3676553

 Broyden mixing:
  rms(total) = 0.62522E+01    rms(broyden)= 0.62493E+01
  rms(prec ) = 0.64563E+01
  weight for this iteration     100.00

 eigenvalues of (default mixing * dielectric matrix)
  average eigenvalue GAMMA=   0.9465
  0.9465

 Free energy of the ion-electron system (eV)
  ---------------------------------------------------
  alpha Z        PSCENC =       121.75041367
  Ewald energy   TEWEN  =    186217.29744949
  -Hartree energ DENC   =   -244470.87216498
  -exchange      EXHF   =         0.00000000
  -V(xc)+E(xc)   XCENC  =      2313.96323036
  PAW double counting   =     57800.85016791   -62502.05270220
  entropy T*S    EENTRO =         0.00000000
  eigenvalues    EBANDS =     -4662.40823555
  atomic energy  EATOM  =     65373.97247892
  Solvation  Ediel_sol  =         0.00000000
  ---------------------------------------------------
  free energy    TOTEN  =       192.50063763 eV

  energy without entropy =      192.50063763  energy(sigma->0) =      192.50063763


--------------------------------------------------------------------------------------------------------




--------------------------------------- Iteration      1(   7)  ---------------------------------------


    POTLOK:  cpu time    0.3720: real time    0.3860
    SETDIJ:  cpu time    0.0120: real time    0.0133
     EDDAV:  cpu time   14.5040: real time   14.5007
       DOS:  cpu time    0.0000: real time    0.0007
    CHARGE:  cpu time    0.2760: real time    0.2769
    MIXING:  cpu time    0.0120: real time    0.0111
    --------------------------------------------
      LOOP:  cpu time   15.1760: real time   15.1887

 eigenvalue-minimisations  :  1776
 total energy-change (2. order) : 0.2247374E+02  (-0.7349871E+02)
 number of electron     517.0000626 magnetization     110.9694822
 augmentation part      335.4610181 magnetization      69.3282229

 Broyden mixing:
  rms(total) = 0.31914E+01    rms(broyden)= 0.31904E+01
  rms(prec ) = 0.32329E+01
  weight for this iteration     100.00

 eigenvalues of (default mixing * dielectric matrix)
  average eigenvalue GAMMA=   0.8757
  1.0409  0.7104

 Free energy of the ion-electron system (eV)
  ---------------------------------------------------
  alpha Z        PSCENC =       121.75041367
  Ewald energy   TEWEN  =    186217.29744949
  -Hartree energ DENC   =   -245601.33608124
  -exchange      EXHF   =         0.00000000
  -V(xc)+E(xc)   XCENC  =      2354.35191480
  PAW double counting   =     59573.76521212   -64680.66424264
  entropy T*S    EENTRO =         0.00000000
  eigenvalues    EBANDS =     -3144.16276425
  atomic energy  EATOM  =     65373.97247892
  Solvation  Ediel_sol  =         0.00000000
  ---------------------------------------------------
  free energy    TOTEN  =       214.97438087 eV

  energy without entropy =      214.97438087  energy(sigma->0) =      214.97438087


--------------------------------------------------------------------------------------------------------




--------------------------------------- Iteration      1(   8)  ---------------------------------------


    POTLOK:  cpu time    0.3800: real time    0.3846
    SETDIJ:  cpu time    0.0120: real time    0.0134
     EDDAV:  cpu time   16.4800: real time   16.4786
       DOS:  cpu time    0.0000: real time    0.0007
    CHARGE:  cpu time    0.2760: real time    0.2748
    MIXING:  cpu time    0.0080: real time    0.0115
    --------------------------------------------
      LOOP:  cpu time   17.1600: real time   17.1635

 eigenvalue-minimisations  :  2080
 total energy-change (2. order) : 0.1300280E+02  (-0.1200420E+02)
 number of electron     517.0000622 magnetization     104.5329939
 augmentation part      330.0224940 magnetization      60.5571223

 Broyden mixing:
  rms(total) = 0.29404E+01    rms(broyden)= 0.29398E+01
  rms(prec ) = 0.30176E+01
  weight for this iteration     100.00

 eigenvalues of (default mixing * dielectric matrix)
  average eigenvalue GAMMA=   0.7908
  1.1109  0.7181  0.5434

 Free energy of the ion-electron system (eV)
  ---------------------------------------------------
  alpha Z        PSCENC =       121.75041367
  Ewald energy   TEWEN  =    186217.29744949
  -Hartree energ DENC   =   -245884.75504789
  -exchange      EXHF   =         0.00000000
  -V(xc)+E(xc)   XCENC  =      2370.01913443
  PAW double counting   =     60651.17517057   -65801.10784153
  entropy T*S    EENTRO =         0.00000000
  eigenvalues    EBANDS =     -2820.37457972
  atomic energy  EATOM  =     65373.97247892
  Solvation  Ediel_sol  =         0.00000000
  ---------------------------------------------------
  free energy    TOTEN  =       227.97717793 eV

  energy without entropy =      227.97717793  energy(sigma->0) =      227.97717793


--------------------------------------------------------------------------------------------------------




--------------------------------------- Iteration      1(   9)  ---------------------------------------


    POTLOK:  cpu time    0.3720: real time    0.3815
    SETDIJ:  cpu time    0.0160: real time    0.0132
     EDDAV:  cpu time   15.6640: real time   15.6655
       DOS:  cpu time    0.0000: real time    0.0006
    CHARGE:  cpu time    0.2760: real time    0.2764
    MIXING:  cpu time    0.0160: real time    0.0127
    --------------------------------------------
      LOOP:  cpu time   16.3400: real time   16.3500

 eigenvalue-minimisations  :  1952
 total energy-change (2. order) :-0.1839494E+02  (-0.4004872E+01)
 number of electron     517.0000619 magnetization      88.1620146
 augmentation part      331.2029544 magnetization      46.3619185

 Broyden mixing:
  rms(total) = 0.22528E+01    rms(broyden)= 0.22523E+01
  rms(prec ) = 0.22911E+01
  weight for this iteration     100.00

 eigenvalues of (default mixing * dielectric matrix)
  average eigenvalue GAMMA=   0.9174
  1.4659  0.9372  0.8424  0.4242

 Free energy of the ion-electron system (eV)
  ---------------------------------------------------
  alpha Z        PSCENC =       121.75041367
  Ewald energy   TEWEN  =    186217.29744949
  -Hartree energ DENC   =   -245818.99965461
  -exchange      EXHF   =         0.00000000
  -V(xc)+E(xc)   XCENC  =      2352.84219950
  PAW double counting   =     60932.49133611   -66060.80895802
  entropy T*S    EENTRO =         0.00000000
  eigenvalues    EBANDS =     -2908.96302327
  atomic energy  EATOM  =     65373.97247892
  Solvation  Ediel_sol  =         0.00000000
  ---------------------------------------------------
  free energy    TOTEN  =       209.58224179 eV

  energy without entropy =      209.58224179  energy(sigma->0) =      209.58224179


--------------------------------------------------------------------------------------------------------




--------------------------------------- Iteration      1(  10)  ---------------------------------------


    POTLOK:  cpu time    0.3800: real time    0.3849
    SETDIJ:  cpu time    0.0120: real time    0.0131
     EDDAV:  cpu time   19.5000: real time   19.5020
       DOS:  cpu time    0.0000: real time    0.0006
    CHARGE:  cpu time    0.2800: real time    0.2764
    MIXING:  cpu time    0.0120: real time    0.0127
    --------------------------------------------
      LOOP:  cpu time   20.1840: real time   20.1898

 eigenvalue-minimisations  :  2552
 total energy-change (2. order) :-0.7006568E+02  (-0.3490210E+01)
 number of electron     517.0000622 magnetization      72.4737123
 augmentation part      333.3376056 magnetization      36.0274255

 Broyden mixing:
  rms(total) = 0.18213E+01    rms(broyden)= 0.18207E+01
  rms(prec ) = 0.18606E+01
  weight for this iteration     100.00

 eigenvalues of (default mixing * dielectric matrix)
  average eigenvalue GAMMA=   1.1008
  2.6718  1.1436  0.7085  0.5787  0.4014

 Free energy of the ion-electron system (eV)
  ---------------------------------------------------
  alpha Z        PSCENC =       121.75041367
  Ewald energy   TEWEN  =    186217.29744949
  -Hartree energ DENC   =   -245804.94871990
  -exchange      EXHF   =         0.00000000
  -V(xc)+E(xc)   XCENC  =      2294.06667665
  PAW double counting   =     61391.28729228   -66468.82160456
  entropy T*S    EENTRO =         0.00000000
  eigenvalues    EBANDS =     -2985.08742664
  atomic energy  EATOM  =     65373.97247892
  Solvation  Ediel_sol  =         0.00000000
  ---------------------------------------------------
  free energy    TOTEN  =       139.51655990 eV

  energy without entropy =      139.51655990  energy(sigma->0) =      139.51655990


--------------------------------------------------------------------------------------------------------




--------------------------------------- Iteration      1(  11)  ---------------------------------------


    POTLOK:  cpu time    0.3720: real time    0.3827
    SETDIJ:  cpu time    0.0120: real time    0.0133
     EDDAV:  cpu time   15.6840: real time   15.6830
       DOS:  cpu time    0.0000: real time    0.0006
    CHARGE:  cpu time    0.2800: real time    0.2790
    MIXING:  cpu time    0.0120: real time    0.0133
    --------------------------------------------
      LOOP:  cpu time   16.3600: real time   16.3718

 eigenvalue-minimisations  :  1960
 total energy-change (2. order) :-0.4471117E+02  (-0.3870592E+01)
 number of electron     517.0000620 magnetization      63.2325726
 augmentation part      334.9548729 magnetization      32.7410448

 Broyden mixing:
  rms(total) = 0.14139E+01    rms(broyden)= 0.14135E+01
  rms(prec ) = 0.14381E+01
  weight for this iteration     100.00

 eigenvalues of (default mixing * dielectric matrix)
  average eigenvalue GAMMA=   1.0805
  3.1222  1.1871  0.5961  0.5961  0.5853  0.3965

 Free energy of the ion-electron system (eV)
  ---------------------------------------------------
  alpha Z        PSCENC =       121.75041367
  Ewald energy   TEWEN  =    186217.29744949
  -Hartree energ DENC   =   -245840.56888780
  -exchange      EXHF   =         0.00000000
  -V(xc)+E(xc)   XCENC  =      2260.68071938
  PAW double counting   =     61688.71272584   -66737.77686815
  entropy T*S    EENTRO =         0.00000000
  eigenvalues    EBANDS =     -2989.26264075
  atomic energy  EATOM  =     65373.97247892
  Solvation  Ediel_sol  =         0.00000000
  ---------------------------------------------------
  free energy    TOTEN  =        94.80539060 eV

  energy without entropy =       94.80539060  energy(sigma->0) =       94.80539060


--------------------------------------------------------------------------------------------------------




--------------------------------------- Iteration      1(  12)  ---------------------------------------


    POTLOK:  cpu time    0.3800: real time    0.3835
    SETDIJ:  cpu time    0.0120: real time    0.0131
     EDDAV:  cpu time   15.4960: real time   15.4957
       DOS:  cpu time    0.0000: real time    0.0006
    CHARGE:  cpu time    0.2800: real time    0.2777
    MIXING:  cpu time    0.0120: real time    0.0144
    --------------------------------------------
      LOOP:  cpu time   16.1800: real time   16.1850

 eigenvalue-minimisations  :  1928
 total energy-change (2. order) :-0.2561871E+02  (-0.2180104E+01)
 number of electron     517.0000613 magnetization      50.4296883
 augmentation part      333.7538032 magnetization      23.5345608

 Broyden mixing:
  rms(total) = 0.11329E+01    rms(broyden)= 0.11327E+01
  rms(prec ) = 0.11520E+01
  weight for this iteration     100.00

 eigenvalues of (default mixing * dielectric matrix)
  average eigenvalue GAMMA=   1.2472
  4.1252  1.3667  0.8528  0.8528  0.6821  0.4254  0.4254

 Free energy of the ion-electron system (eV)
  ---------------------------------------------------
  alpha Z        PSCENC =       121.75041367
  Ewald energy   TEWEN  =    186217.29744949
  -Hartree energ DENC   =   -245917.69680842
  -exchange      EXHF   =         0.00000000
  -V(xc)+E(xc)   XCENC  =      2245.48730671
  PAW double counting   =     61745.69256672   -66803.28617040
  entropy T*S    EENTRO =         0.00000000
  eigenvalues    EBANDS =     -2914.03055689
  atomic energy  EATOM  =     65373.97247892
  Solvation  Ediel_sol  =         0.00000000
  ---------------------------------------------------
  free energy    TOTEN  =        69.18667981 eV

  energy without entropy =       69.18667981  energy(sigma->0) =       69.18667981


--------------------------------------------------------------------------------------------------------




--------------------------------------- Iteration      1(  13)  ---------------------------------------


    POTLOK:  cpu time    0.3720: real time    0.3865
    SETDIJ:  cpu time    0.0160: real time    0.0135
     EDDAV:  cpu time   15.2600: real time   15.2623
       DOS:  cpu time    0.0040: real time    0.0008
    CHARGE:  cpu time    0.2760: real time    0.2780
    MIXING:  cpu time    0.0160: real time    0.0145
    --------------------------------------------
      LOOP:  cpu time   15.9440: real time   15.9556

 eigenvalue-minimisations  :  1888
 total energy-change (2. order) :-0.4784255E+02  (-0.3300761E+01)
 number of electron     517.0000615 magnetization      40.0676417
 augmentation part      330.9291341 magnetization      15.8340280

 Broyden mixing:
  rms(total) = 0.89704E+00    rms(broyden)= 0.89682E+00
  rms(prec ) = 0.92587E+00
  weight for this iteration     100.00

 eigenvalues of (default mixing * dielectric matrix)
  average eigenvalue GAMMA=   1.2952
  4.9154  1.7244  0.7759  0.7759  0.7940  0.3948  0.4906  0.4906

 Free energy of the ion-electron system (eV)
  ---------------------------------------------------
  alpha Z        PSCENC =       121.75041367
  Ewald energy   TEWEN  =    186217.29744949
  -Hartree energ DENC   =   -246001.87241143
  -exchange      EXHF   =         0.00000000
  -V(xc)+E(xc)   XCENC  =      2213.91794011
  PAW double counting   =     61669.00884051   -66741.07814565
  entropy T*S    EENTRO =         0.00000000
  eigenvalues    EBANDS =     -2831.65243868
  atomic energy  EATOM  =     65373.97247892
  Solvation  Ediel_sol  =         0.00000000
  ---------------------------------------------------
  free energy    TOTEN  =        21.34412694 eV

  energy without entropy =       21.34412694  energy(sigma->0) =       21.34412694


--------------------------------------------------------------------------------------------------------




--------------------------------------- Iteration      1(  14)  ---------------------------------------


    POTLOK:  cpu time    0.3800: real time    0.3868
    SETDIJ:  cpu time    0.0160: real time    0.0132
     EDDAV:  cpu time   17.0160: real time   17.0176
       DOS:  cpu time    0.0000: real time    0.0008
    CHARGE:  cpu time    0.2800: real time    0.2788
    MIXING:  cpu time    0.0160: real time    0.0155
    --------------------------------------------
      LOOP:  cpu time   17.7080: real time   17.7126

 eigenvalue-minimisations  :  2168
 total energy-change (2. order) :-0.5081338E+02  (-0.3797188E+01)
 number of electron     517.0000603 magnetization      29.8092605
 augmentation part      329.8229440 magnetization      11.3884729

 Broyden mixing:
  rms(total) = 0.74659E+00    rms(broyden)= 0.74589E+00
  rms(prec ) = 0.76713E+00
  weight for this iteration     100.00

 eigenvalues of (default mixing * dielectric matrix)
  average eigenvalue GAMMA=   1.3592
  5.6523  2.1658  1.0034  0.7502  0.7502  0.6400  0.5005  0.3851  0.3851

 Free energy of the ion-electron system (eV)
  ---------------------------------------------------
  alpha Z        PSCENC =       121.75041367
  Ewald energy   TEWEN  =    186217.29744949
  -Hartree energ DENC   =   -245968.94204276
  -exchange      EXHF   =         0.00000000
  -V(xc)+E(xc)   XCENC  =      2176.03728090
  PAW double counting   =     61399.75959480   -66466.46775976
  entropy T*S    EENTRO =        -0.00000000
  eigenvalues    EBANDS =     -2882.87666384
  atomic energy  EATOM  =     65373.97247892
  Solvation  Ediel_sol  =         0.00000000
  ---------------------------------------------------
  free energy    TOTEN  =       -29.46924858 eV

  energy without entropy =      -29.46924858  energy(sigma->0) =      -29.46924858


--------------------------------------------------------------------------------------------------------




--------------------------------------- Iteration      1(  15)  ---------------------------------------


    POTLOK:  cpu time    0.3720: real time    0.3816
    SETDIJ:  cpu time    0.0120: real time    0.0132
     EDDAV:  cpu time   15.1840: real time   15.1832
       DOS:  cpu time    0.0000: real time    0.0007
    CHARGE:  cpu time    0.2800: real time    0.2786
    MIXING:  cpu time    0.0160: real time    0.0160
    --------------------------------------------
      LOOP:  cpu time   15.8640: real time   15.8733

 eigenvalue-minimisations  :  1880
 total energy-change (2. order) :-0.4306047E+02  (-0.3865517E+01)
 number of electron     517.0000610 magnetization      23.4730092
 augmentation part      329.8978432 magnetization      11.1209861

 Broyden mixing:
  rms(total) = 0.57745E+00    rms(broyden)= 0.57659E+00
  rms(prec ) = 0.59865E+00
  weight for this iteration     100.00

 eigenvalues of (default mixing * dielectric matrix)
  average eigenvalue GAMMA=   1.4062
  6.4008  2.5083  1.0286  0.8039  0.8039  0.6463  0.6463  0.4330  0.4330  0.3577

 Free energy of the ion-electron system (eV)
  ---------------------------------------------------
  alpha Z        PSCENC =       121.75041367
  Ewald energy   TEWEN  =    186217.29744949
  -Hartree energ DENC   =   -245915.77789917
  -exchange      EXHF   =         0.00000000
  -V(xc)+E(xc)   XCENC  =      2142.52851415
  PAW double counting   =     61162.92359574   -66216.49363451
  entropy T*S    EENTRO =         0.00000000
  eigenvalues    EBANDS =     -2958.73063354
  atomic energy  EATOM  =     65373.97247892
  Solvation  Ediel_sol  =         0.00000000
  ---------------------------------------------------
  free energy    TOTEN  =       -72.52971526 eV

  energy without entropy =      -72.52971526  energy(sigma->0) =      -72.52971526


--------------------------------------------------------------------------------------------------------




--------------------------------------- Iteration      1(  16)  ---------------------------------------


    POTLOK:  cpu time    0.3840: real time    0.3896
    SETDIJ:  cpu time    0.0120: real time    0.0135
     EDDAV:  cpu time   16.4920: real time   16.4896
       DOS:  cpu time    0.0000: real time    0.0007
    CHARGE:  cpu time    0.2720: real time    0.2738
    MIXING:  cpu time    0.0160: real time    0.0170
    --------------------------------------------
      LOOP:  cpu time   17.1760: real time   17.1841

 eigenvalue-minimisations  :  2080
 total energy-change (2. order) :-0.1923150E+02  (-0.1672504E+01)
 number of electron     517.0000609 magnetization      18.4411216
 augmentation part      330.0295083 magnetization       9.4847095

 Broyden mixing:
  rms(total) = 0.48327E+00    rms(broyden)= 0.48271E+00
  rms(prec ) = 0.49769E+00
  weight for this iteration     100.00

 eigenvalues of (default mixing * dielectric matrix)
  average eigenvalue GAMMA=   1.4294
  7.0716  2.7934  0.8817  0.8817  0.9646  0.7144  0.7144  0.4667  0.4667  0.4262
  0.3425

 Free energy of the ion-electron system (eV)
  ---------------------------------------------------
  alpha Z        PSCENC =       121.75041367
  Ewald energy   TEWEN  =    186217.29744949
  -Hartree energ DENC   =   -245892.65595175
  -exchange      EXHF   =         0.00000000
  -V(xc)+E(xc)   XCENC  =      2127.69010803
  PAW double counting   =     61104.49181913   -66150.45069879
  entropy T*S    EENTRO =         0.00000000
  eigenvalues    EBANDS =     -2993.85683302
  atomic energy  EATOM  =     65373.97247892
  Solvation  Ediel_sol  =         0.00000000
  ---------------------------------------------------
  free energy    TOTEN  =       -91.76121432 eV

  energy without entropy =      -91.76121432  energy(sigma->0) =      -91.76121432


--------------------------------------------------------------------------------------------------------




--------------------------------------- Iteration      1(  17)  ---------------------------------------


    POTLOK:  cpu time    0.3760: real time    0.3896
    SETDIJ:  cpu time    0.0120: real time    0.0133
     EDDAV:  cpu time   15.4240: real time   15.4241
       DOS:  cpu time    0.0000: real time    0.0007
    CHARGE:  cpu time    0.2720: real time    0.2703
    MIXING:  cpu time    0.0160: real time    0.0175
    --------------------------------------------
      LOOP:  cpu time   16.1000: real time   16.1155

 eigenvalue-minimisations  :  1920
 total energy-change (2. order) :-0.1386969E+02  (-0.8922884E+00)
 number of electron     517.0000609 magnetization      14.6448727
 augmentation part      330.4831973 magnetization       8.7358408

 Broyden mixing:
  rms(total) = 0.37033E+00    rms(broyden)= 0.36977E+00
  rms(prec ) = 0.38195E+00
  weight for this iteration     100.00

 eigenvalues of (default mixing * dielectric matrix)
  average eigenvalue GAMMA=   1.4658
  7.8765  2.9724  1.0325  1.0325  0.8106  0.8106  0.8153  0.5674  0.5246  0.4081
  0.4081  0.3312

 Free energy of the ion-electron system (eV)
  ---------------------------------------------------
  alpha Z        PSCENC =       121.75041367
  Ewald energy   TEWEN  =    186217.29744949
  -Hartree energ DENC   =   -245857.44982990
  -exchange      EXHF   =         0.00000000
  -V(xc)+E(xc)   XCENC  =      2116.01521504
  PAW double counting   =     61028.83854807   -66069.28534140
  entropy T*S    EENTRO =         0.00000000
  eigenvalues    EBANDS =     -3036.76983613
  atomic energy  EATOM  =     65373.97247892
  Solvation  Ediel_sol  =         0.00000000
  ---------------------------------------------------
  free energy    TOTEN  =      -105.63090224 eV

  energy without entropy =     -105.63090224  energy(sigma->0) =     -105.63090224


--------------------------------------------------------------------------------------------------------




--------------------------------------- Iteration      1(  18)  ---------------------------------------


    POTLOK:  cpu time    0.3800: real time    0.3817
    SETDIJ:  cpu time    0.0120: real time    0.0134
     EDDAV:  cpu time   15.4920: real time   15.4922
       DOS:  cpu time    0.0000: real time    0.0007
    CHARGE:  cpu time    0.2760: real time    0.2747
    MIXING:  cpu time    0.0200: real time    0.0184
    --------------------------------------------
      LOOP:  cpu time   16.1800: real time   16.1811

 eigenvalue-minimisations  :  1928
 total energy-change (2. order) :-0.9215105E+01  (-0.3898771E+00)
 number of electron     517.0000611 magnetization      10.6455277
 augmentation part      330.7631276 magnetization       7.1664735

 Broyden mixing:
  rms(total) = 0.29856E+00    rms(broyden)= 0.29804E+00
  rms(prec ) = 0.30822E+00
  weight for this iteration     100.00

 eigenvalues of (default mixing * dielectric matrix)
  average eigenvalue GAMMA=   1.4931
  8.7689  3.0295  1.1042  1.1042  1.1199  0.7179  0.7179  0.6420  0.6420  0.4145
  0.4145  0.4081  0.3264

 Free energy of the ion-electron system (eV)
  ---------------------------------------------------
  alpha Z        PSCENC =       121.75041367
  Ewald energy   TEWEN  =    186217.29744949
  -Hartree energ DENC   =   -245825.32637027
  -exchange      EXHF   =         0.00000000
  -V(xc)+E(xc)   XCENC  =      2107.74655116
  PAW double counting   =     60987.61696479   -66026.59962439
  entropy T*S    EENTRO =         0.00000000
  eigenvalues    EBANDS =     -3071.30387097
  atomic energy  EATOM  =     65373.97247892
  Solvation  Ediel_sol  =         0.00000000
  ---------------------------------------------------
  free energy    TOTEN  =      -114.84600759 eV

  energy without entropy =     -114.84600759  energy(sigma->0) =     -114.84600759


--------------------------------------------------------------------------------------------------------




--------------------------------------- Iteration      1(  19)  ---------------------------------------


    POTLOK:  cpu time    0.3720: real time    0.3825
    SETDIJ:  cpu time    0.0120: real time    0.0132
     EDDAV:  cpu time   15.8240: real time   15.8226
       DOS:  cpu time    0.0000: real time    0.0007
    CHARGE:  cpu time    0.2800: real time    0.2796
    MIXING:  cpu time    0.0200: real time    0.0193
    --------------------------------------------
      LOOP:  cpu time   16.5080: real time   16.5179

 eigenvalue-minimisations  :  1984
 total energy-change (2. order) :-0.7246877E+01  (-0.1932092E+00)
 number of electron     517.0000609 magnetization       6.9739350
 augmentation part      330.8812254 magnetization       5.6020384

 Broyden mixing:
  rms(total) = 0.24519E+00    rms(broyden)= 0.24461E+00
  rms(prec ) = 0.25341E+00
  weight for this iteration     100.00

 eigenvalues of (default mixing * dielectric matrix)
  average eigenvalue GAMMA=   1.5015
  9.4969  3.0036  1.4608  1.1108  1.1108  0.7394  0.7394  0.6723  0.6723  0.4380
  0.4380  0.4258  0.3861  0.3271

 Free energy of the ion-electron system (eV)
  ---------------------------------------------------
  alpha Z        PSCENC =       121.75041367
  Ewald energy   TEWEN  =    186217.29744949
  -Hartree energ DENC   =   -245803.70744917
  -exchange      EXHF   =         0.00000000
  -V(xc)+E(xc)   XCENC  =      2101.12879478
  PAW double counting   =     60980.30397307   -66021.67770123
  entropy T*S    EENTRO =         0.00000000
  eigenvalues    EBANDS =     -3091.16084390
  atomic energy  EATOM  =     65373.97247892
  Solvation  Ediel_sol  =         0.00000000
  ---------------------------------------------------
  free energy    TOTEN  =      -122.09288438 eV

  energy without entropy =     -122.09288438  energy(sigma->0) =     -122.09288438


--------------------------------------------------------------------------------------------------------




--------------------------------------- Iteration      1(  20)  ---------------------------------------


    POTLOK:  cpu time    0.3760: real time    0.3836
    SETDIJ:  cpu time    0.0120: real time    0.0133
     EDDAV:  cpu time   15.2800: real time   15.2797
       DOS:  cpu time    0.0000: real time    0.0006
    CHARGE:  cpu time    0.2760: real time    0.2757
    MIXING:  cpu time    0.0200: real time    0.0204
    --------------------------------------------
      LOOP:  cpu time   15.9640: real time   15.9733

 eigenvalue-minimisations  :  1896
 total energy-change (2. order) :-0.4805122E+01  (-0.8566296E-01)
 number of electron     517.0000610 magnetization       5.1782457
 augmentation part      330.8456843 magnetization       4.1433342

 Broyden mixing:
  rms(total) = 0.17683E+00    rms(broyden)= 0.17677E+00
  rms(prec ) = 0.18467E+00
  weight for this iteration     100.00

 eigenvalues of (default mixing * dielectric matrix)
  average eigenvalue GAMMA=   1.5330
 10.0581  3.1295  1.6557  1.2413  1.0309  1.0309  0.7953  0.7953  0.6273  0.6273
  0.4406  0.4406  0.3956  0.3956  0.3317

 Free energy of the ion-electron system (eV)
  ---------------------------------------------------
  alpha Z        PSCENC =       121.75041367
  Ewald energy   TEWEN  =    186217.29744949
  -Hartree energ DENC   =   -245791.09693732
  -exchange      EXHF   =         0.00000000
  -V(xc)+E(xc)   XCENC  =      2096.61451715
  PAW double counting   =     60994.20706302   -66038.53012825
  entropy T*S    EENTRO =         0.00000000
  eigenvalues    EBANDS =     -3101.11286319
  atomic energy  EATOM  =     65373.97247892
  Solvation  Ediel_sol  =         0.00000000
  ---------------------------------------------------
  free energy    TOTEN  =      -126.89800651 eV

  energy without entropy =     -126.89800651  energy(sigma->0) =     -126.89800651


--------------------------------------------------------------------------------------------------------




--------------------------------------- Iteration      1(  21)  ---------------------------------------


    POTLOK:  cpu time    0.3760: real time    0.3833
    SETDIJ:  cpu time    0.0120: real time    0.0133
     EDDAV:  cpu time   14.9840: real time   14.9834
       DOS:  cpu time    0.0000: real time    0.0007
    CHARGE:  cpu time    0.2760: real time    0.2738
    MIXING:  cpu time    0.0200: real time    0.0215
    --------------------------------------------
      LOOP:  cpu time   15.6680: real time   15.6760

 eigenvalue-minimisations  :  1848
 total energy-change (2. order) :-0.4432582E+01  (-0.5821184E-01)
 number of electron     517.0000609 magnetization       4.0543730
 augmentation part      330.8697395 magnetization       3.1727760

 Broyden mixing:
  rms(total) = 0.13311E+00    rms(broyden)= 0.13308E+00
  rms(prec ) = 0.14051E+00
  weight for this iteration     100.00

 eigenvalues of (default mixing * dielectric matrix)
  average eigenvalue GAMMA=   1.5628
 10.5973  3.4883  1.9697  1.3735  1.1002  1.1002  0.7700  0.7700  0.6545  0.6545
  0.5036  0.5036  0.4044  0.3926  0.3926  0.3297

 Free energy of the ion-electron system (eV)
  ---------------------------------------------------
  alpha Z        PSCENC =       121.75041367
  Ewald energy   TEWEN  =    186217.29744949
  -Hartree energ DENC   =   -245759.66206667
  -exchange      EXHF   =         0.00000000
  -V(xc)+E(xc)   XCENC  =      2092.17080150
  PAW double counting   =     60973.60765950   -66019.37769962
  entropy T*S    EENTRO =         0.00000000
  eigenvalues    EBANDS =     -3131.08962482
  atomic energy  EATOM  =     65373.97247892
  Solvation  Ediel_sol  =         0.00000000
  ---------------------------------------------------
  free energy    TOTEN  =      -131.33058804 eV

  energy without entropy =     -131.33058804  energy(sigma->0) =     -131.33058804


--------------------------------------------------------------------------------------------------------




--------------------------------------- Iteration      1(  22)  ---------------------------------------


    POTLOK:  cpu time    0.3720: real time    0.3897
    SETDIJ:  cpu time    0.0160: real time    0.0133
     EDDAV:  cpu time   16.1800: real time   16.1822
       DOS:  cpu time    0.0000: real time    0.0006
    CHARGE:  cpu time    0.2720: real time    0.2685
    MIXING:  cpu time    0.0200: real time    0.0230
    --------------------------------------------
      LOOP:  cpu time   16.8600: real time   16.8773

 eigenvalue-minimisations  :  2040
 total energy-change (2. order) :-0.3372277E+01  (-0.3163241E-01)
 number of electron     517.0000609 magnetization       3.1285087
 augmentation part      330.9708083 magnetization       2.3126662

 Broyden mixing:
  rms(total) = 0.86792E-01    rms(broyden)= 0.86764E-01
  rms(prec ) = 0.92786E-01
  weight for this iteration     100.00

 eigenvalues of (default mixing * dielectric matrix)
  average eigenvalue GAMMA=   1.5892
 11.0471  3.8943  2.2075  1.0981  1.0981  1.1191  1.1191  0.8102  0.8102  0.6715
  0.6715  0.5061  0.4454  0.4162  0.3854  0.3854  0.3311

 Free energy of the ion-electron system (eV)
  ---------------------------------------------------
  alpha Z        PSCENC =       121.75041367
  Ewald energy   TEWEN  =    186217.29744949
  -Hartree energ DENC   =   -245725.23706375
  -exchange      EXHF   =         0.00000000
  -V(xc)+E(xc)   XCENC  =      2088.53731791
  PAW double counting   =     60949.03738386   -65994.87498495
  entropy T*S    EENTRO =        -0.00000000
  eigenvalues    EBANDS =     -3165.18586003
  atomic energy  EATOM  =     65373.97247892
  Solvation  Ediel_sol  =         0.00000000
  ---------------------------------------------------
  free energy    TOTEN  =      -134.70286488 eV

  energy without entropy =     -134.70286488  energy(sigma->0) =     -134.70286488


--------------------------------------------------------------------------------------------------------




--------------------------------------- Iteration      1(  23)  ---------------------------------------


    POTLOK:  cpu time    0.3800: real time    0.3844
    SETDIJ:  cpu time    0.0120: real time    0.0134
     EDDAV:  cpu time   15.3840: real time   15.3806
       DOS:  cpu time    0.0000: real time    0.0008
    CHARGE:  cpu time    0.2680: real time    0.2683
    MIXING:  cpu time    0.0240: real time    0.0248
    --------------------------------------------
      LOOP:  cpu time   16.0680: real time   16.0722

 eigenvalue-minimisations  :  1912
 total energy-change (2. order) :-0.1734944E+01  (-0.1282880E-01)
 number of electron     517.0000609 magnetization       2.3360117
 augmentation part      330.9498447 magnetization       1.5038866

 Broyden mixing:
  rms(total) = 0.60635E-01    rms(broyden)= 0.60617E-01
  rms(prec ) = 0.65339E-01
  weight for this iteration     100.00

 eigenvalues of (default mixing * dielectric matrix)
  average eigenvalue GAMMA=   1.6199
 11.4647  4.3281  2.2868  1.5141  1.5141  1.0312  1.0312  0.7776  0.7776  0.6837
  0.6837  0.6439  0.4523  0.4523  0.4158  0.3853  0.3853  0.3310

 Free energy of the ion-electron system (eV)
  ---------------------------------------------------
  alpha Z        PSCENC =       121.75041367
  Ewald energy   TEWEN  =    186217.29744949
  -Hartree energ DENC   =   -245705.78209889
  -exchange      EXHF   =         0.00000000
  -V(xc)+E(xc)   XCENC  =      2086.80413768
  PAW double counting   =     60956.33330932   -66003.23873883
  entropy T*S    EENTRO =         0.00000000
  eigenvalues    EBANDS =     -3183.57476019
  atomic energy  EATOM  =     65373.97247892
  Solvation  Ediel_sol  =         0.00000000
  ---------------------------------------------------
  free energy    TOTEN  =      -136.43780883 eV

  energy without entropy =     -136.43780883  energy(sigma->0) =     -136.43780883


--------------------------------------------------------------------------------------------------------




--------------------------------------- Iteration      1(  24)  ---------------------------------------


    POTLOK:  cpu time    0.3720: real time    0.3816
    SETDIJ:  cpu time    0.0120: real time    0.0133
     EDDAV:  cpu time   14.6880: real time   14.6869
       DOS:  cpu time    0.0000: real time    0.0007
    CHARGE:  cpu time    0.2680: real time    0.2673
    MIXING:  cpu time    0.0280: real time    0.0275
    --------------------------------------------
      LOOP:  cpu time   15.3680: real time   15.3774

 eigenvalue-minimisations  :  1800
 total energy-change (2. order) :-0.1076741E+01  (-0.5950121E-02)
 number of electron     517.0000609 magnetization       1.8154043
 augmentation part      330.8767570 magnetization       0.9831869

 Broyden mixing:
  rms(total) = 0.37829E-01    rms(broyden)= 0.37814E-01
  rms(prec ) = 0.41765E-01
  weight for this iteration     100.00

 eigenvalues of (default mixing * dielectric matrix)
  average eigenvalue GAMMA=   1.6334
 11.7919  4.7400  2.5488  1.5097  1.5097  1.0845  1.0845  0.9160  0.7786  0.7786
  0.6734  0.6734  0.5361  0.4517  0.4517  0.3309  0.3851  0.3851  0.4047

 Free energy of the ion-electron system (eV)
  ---------------------------------------------------
  alpha Z        PSCENC =       121.75041367
  Ewald energy   TEWEN  =    186217.29744949
  -Hartree energ DENC   =   -245689.09152689
  -exchange      EXHF   =         0.00000000
  -V(xc)+E(xc)   XCENC  =      2085.79709504
  PAW double counting   =     60961.43219944   -66009.51001373
  entropy T*S    EENTRO =         0.00000000
  eigenvalues    EBANDS =     -3199.16264553
  atomic energy  EATOM  =     65373.97247892
  Solvation  Ediel_sol  =         0.00000000
  ---------------------------------------------------
  free energy    TOTEN  =      -137.51454959 eV

  energy without entropy =     -137.51454959  energy(sigma->0) =     -137.51454959


--------------------------------------------------------------------------------------------------------




--------------------------------------- Iteration      1(  25)  ---------------------------------------


    POTLOK:  cpu time    0.3760: real time    0.3874
    SETDIJ:  cpu time    0.0160: real time    0.0132
     EDDAV:  cpu time   13.9360: real time   13.9359
       DOS:  cpu time    0.0000: real time    0.0007
    CHARGE:  cpu time    0.2680: real time    0.2678
    MIXING:  cpu time    0.0280: real time    0.0290
    --------------------------------------------
      LOOP:  cpu time   14.6240: real time   14.6339

 eigenvalue-minimisations  :  1688
 total energy-change (2. order) :-0.6277312E+00  (-0.2709389E-02)
 number of electron     517.0000609 magnetization       1.5057096
 augmentation part      330.8397817 magnetization       0.6818366

 Broyden mixing:
  rms(total) = 0.23039E-01    rms(broyden)= 0.23027E-01
  rms(prec ) = 0.25958E-01
  weight for this iteration     100.00

 eigenvalues of (default mixing * dielectric matrix)
  average eigenvalue GAMMA=   1.6408
 12.0143  5.0210  2.7186  1.6911  1.6911  1.1862  1.0139  1.0139  0.7808  0.7808
  0.6816  0.6816  0.6603  0.5074  0.3310  0.4363  0.4363  0.3876  0.3876  0.3940

 Free energy of the ion-electron system (eV)
  ---------------------------------------------------
  alpha Z        PSCENC =       121.75041367
  Ewald energy   TEWEN  =    186217.29744949
  -Hartree energ DENC   =   -245673.92893472
  -exchange      EXHF   =         0.00000000
  -V(xc)+E(xc)   XCENC  =      2085.16631410
  PAW double counting   =     60963.76318099   -66012.31160016
  entropy T*S    EENTRO =         0.00000000
  eigenvalues    EBANDS =     -3213.85158310
  atomic energy  EATOM  =     65373.97247892
  Solvation  Ediel_sol  =         0.00000000
  ---------------------------------------------------
  free energy    TOTEN  =      -138.14228082 eV

  energy without entropy =     -138.14228082  energy(sigma->0) =     -138.14228082


--------------------------------------------------------------------------------------------------------




--------------------------------------- Iteration      1(  26)  ---------------------------------------


    POTLOK:  cpu time    0.3720: real time    0.3848
    SETDIJ:  cpu time    0.0160: real time    0.0131
     EDDAV:  cpu time   14.5320: real time   14.5352
       DOS:  cpu time    0.0000: real time    0.0006
    CHARGE:  cpu time    0.2680: real time    0.2674
    MIXING:  cpu time    0.0320: real time    0.0304
    --------------------------------------------
      LOOP:  cpu time   15.2200: real time   15.2315

 eigenvalue-minimisations  :  1776
 total energy-change (2. order) :-0.2981601E+00  (-0.9704618E-03)
 number of electron     517.0000610 magnetization       1.4578541
 augmentation part      330.8464925 magnetization       0.6451958

 Broyden mixing:
  rms(total) = 0.15862E-01    rms(broyden)= 0.15857E-01
  rms(prec ) = 0.18219E-01
  weight for this iteration     100.00

 eigenvalues of (default mixing * dielectric matrix)
  average eigenvalue GAMMA=   1.6247
 12.0330  5.1845  2.7858  1.8404  1.8404  1.1672  1.0412  1.0412  0.7684  0.7684
  0.7632  0.7632  0.6425  0.6425  0.3310  0.4569  0.4569  0.3857  0.3857  0.4107
  0.4107

 Free energy of the ion-electron system (eV)
  ---------------------------------------------------
  alpha Z        PSCENC =       121.75041367
  Ewald energy   TEWEN  =    186217.29744949
  -Hartree energ DENC   =   -245664.84711113
  -exchange      EXHF   =         0.00000000
  -V(xc)+E(xc)   XCENC  =      2084.79315486
  PAW double counting   =     60968.21876433   -66016.51748622
  entropy T*S    EENTRO =         0.00000000
  eigenvalues    EBANDS =     -3223.10810488
  atomic energy  EATOM  =     65373.97247892
  Solvation  Ediel_sol  =         0.00000000
  ---------------------------------------------------
  free energy    TOTEN  =      -138.44044095 eV

  energy without entropy =     -138.44044095  energy(sigma->0) =     -138.44044095


--------------------------------------------------------------------------------------------------------




--------------------------------------- Iteration      1(  27)  ---------------------------------------


    POTLOK:  cpu time    0.3720: real time    0.3844
    SETDIJ:  cpu time    0.0120: real time    0.0132
     EDDAV:  cpu time   15.0680: real time   15.0682
       DOS:  cpu time    0.0040: real time    0.0006
    CHARGE:  cpu time    0.2720: real time    0.2737
    MIXING:  cpu time    0.0320: real time    0.0329
    --------------------------------------------
      LOOP:  cpu time   15.7600: real time   15.7731

 eigenvalue-minimisations  :  1864
 total energy-change (2. order) :-0.1616694E+00  (-0.3766875E-03)
 number of electron     517.0000609 magnetization       1.4220660
 augmentation part      330.8645767 magnetization       0.6004212

 Broyden mixing:
  rms(total) = 0.94972E-02    rms(broyden)= 0.94940E-02
  rms(prec ) = 0.11730E-01
  weight for this iteration     100.00

 eigenvalues of (default mixing * dielectric matrix)
  average eigenvalue GAMMA=   1.6113
 12.0381  5.3211  2.8401  2.3422  1.3825  1.3825  1.0567  1.0567  0.9136  0.7770
  0.7770  0.7912  0.6803  0.6803  0.5836  0.3310  0.4670  0.4298  0.4298  0.3860
  0.3860  0.3965

 Free energy of the ion-electron system (eV)
  ---------------------------------------------------
  alpha Z        PSCENC =       121.75041367
  Ewald energy   TEWEN  =    186217.29744949
  -Hartree energ DENC   =   -245658.95655648
  -exchange      EXHF   =         0.00000000
  -V(xc)+E(xc)   XCENC  =      2084.56950844
  PAW double counting   =     60971.83886026   -66019.73789098
  entropy T*S    EENTRO =         0.00000000
  eigenvalues    EBANDS =     -3229.33637361
  atomic energy  EATOM  =     65373.97247892
  Solvation  Ediel_sol  =         0.00000000
  ---------------------------------------------------
  free energy    TOTEN  =      -138.60211030 eV

  energy without entropy =     -138.60211030  energy(sigma->0) =     -138.60211030


--------------------------------------------------------------------------------------------------------




--------------------------------------- Iteration      1(  28)  ---------------------------------------


    POTLOK:  cpu time    0.3760: real time    0.3818
    SETDIJ:  cpu time    0.0120: real time    0.0132
     EDDAV:  cpu time   14.6320: real time   14.6317
       DOS:  cpu time    0.0000: real time    0.0007
    CHARGE:  cpu time    0.2720: real time    0.2720
    MIXING:  cpu time    0.0360: real time    0.0378
    --------------------------------------------
      LOOP:  cpu time   15.3280: real time   15.3372

 eigenvalue-minimisations  :  1792
 total energy-change (2. order) :-0.1173711E+00  (-0.2287405E-03)
 number of electron     517.0000609 magnetization       1.3415145
 augmentation part      330.8842658 magnetization       0.5120900

 Broyden mixing:
  rms(total) = 0.80720E-02    rms(broyden)= 0.80700E-02
  rms(prec ) = 0.95953E-02
  weight for this iteration     100.00

 eigenvalues of (default mixing * dielectric matrix)
  average eigenvalue GAMMA=   1.5998
 12.0594  5.4205  3.0084  2.4626  1.4765  1.4765  1.0131  1.0131  1.0120  1.0120
  0.7612  0.7612  0.7469  0.6424  0.6424  0.4692  0.4692  0.3310  0.4249  0.4249
  0.3863  0.3863  0.3951

 Free energy of the ion-electron system (eV)
  ---------------------------------------------------
  alpha Z        PSCENC =       121.75041367
  Ewald energy   TEWEN  =    186217.29744949
  -Hartree energ DENC   =   -245653.28176088
  -exchange      EXHF   =         0.00000000
  -V(xc)+E(xc)   XCENC  =      2084.40871921
  PAW double counting   =     60973.58737805   -66021.14225112
  entropy T*S    EENTRO =         0.00000000
  eigenvalues    EBANDS =     -3235.31190869
  atomic energy  EATOM  =     65373.97247892
  Solvation  Ediel_sol  =         0.00000000
  ---------------------------------------------------
  free energy    TOTEN  =      -138.71948136 eV

  energy without entropy =     -138.71948136  energy(sigma->0) =     -138.71948136


--------------------------------------------------------------------------------------------------------




--------------------------------------- Iteration      1(  29)  ---------------------------------------


    POTLOK:  cpu time    0.3800: real time    0.3813
    SETDIJ:  cpu time    0.0120: real time    0.0131
     EDDAV:  cpu time   15.4240: real time   15.4246
       DOS:  cpu time    0.0000: real time    0.0006
[...]
   39        0.013   0.008   0.008   0.028
   40       -0.000   0.000   0.013   0.013
   41        0.000   0.001   0.003   0.004
   42        0.005   0.004   0.008   0.017
   43        0.004   0.005   0.006   0.015
   44        0.008   0.009  -0.001   0.016
   45        0.001   0.001   0.007   0.009
   46        0.001   0.002   0.005   0.008
   47        0.014   0.001   0.002   0.017
--------------------------------------------------
tot          0.151   0.140   0.263   0.554
 
    CHARGE:  cpu time    0.2720: real time    0.2727
    FORLOC:  cpu time    0.0360: real time    0.0342
    FORNL :  cpu time    7.5480: real time    7.5491
    STRESS:  cpu time   12.6160: real time   12.6170
    FORCOR:  cpu time    0.3760: real time    0.3761
    FORHAR:  cpu time    0.0720: real time    0.0701
    MIXING:  cpu time    0.0880: real time    0.0916
    OFIELD:  cpu time    0.0000: real time    0.0001

  FORCE on cell =-STRESS in cart. coord.  units (eV):
  Direction    XX          YY          ZZ          XY          YZ          ZX
  --------------------------------------------------------------------------------------
  Alpha Z   121.75041   121.75041   121.75041
  Ewald   79241.30917 47425.60918 59550.25705 -7618.42575  2356.07787 -7075.38754
  Hartree 98373.66835 67776.20273 79485.73151 -7246.79945  2292.64521 -6742.98521
  E(xc)   -3016.80603 -3017.88973 -3017.76320    -0.42706     0.00857    -0.23601
  Local  ************************************ 14867.69916 -4650.50823 13816.04973
  n-local -1080.54563 -1085.10323 -1084.03721    -2.68492     0.77261    -1.24866
  augment  4423.85105  4427.19795  4426.02322     0.29085     0.67993     1.49815
  Kinetic  4230.17282  4233.92225  4232.39355     0.47147     0.54246     2.01046
  Fock        0.00000     0.00000     0.00000     0.00000     0.00000     0.00000
  -------------------------------------------------------------------------------------
  Total     -12.60759   -13.69038   -13.25704     0.12431     0.21842    -0.29908
  in kB      -1.52232    -1.65306    -1.60074     0.01501     0.02637    -0.03611
  external pressure =       -1.59 kB  Pullay stress =        0.00 kB


 VOLUME and BASIS-vectors are now :
 -----------------------------------------------------------------------------
  energy-cutoff  :      295.45
  volume of cell :    13268.98
      direct lattice vectors                 reciprocal lattice vectors
    23.674410000  0.000000000  0.000000000     0.042239701  0.000000000  0.000000000
     0.000000000 23.674410000  0.000000000     0.000000000  0.042239701  0.000000000
     0.000000000  0.000000000 23.674410000     0.000000000  0.000000000  0.042239701

  length of vectors
    23.674410000 23.674410000 23.674410000     0.042239701  0.042239701  0.042239701


 FORCES acting on ions
    electron-ion (+dipol)            ewald-force                    non-local-force                 convergence-correction
 -----------------------------------------------------------------------------------------------
   -.203E+04 -.969E+03 0.707E+03   0.202E+04 0.965E+03 -.706E+03   0.394E+01 0.331E+01 -.141E+01   0.690E-04 0.343E-04 0.122E-04
   -.170E+04 0.988E+02 0.149E+04   0.170E+04 -.995E+02 -.149E+04   0.888E+00 0.721E+00 -.372E+01   0.104E-03 0.437E-04 0.624E-04
   -.198E+04 -.104E+04 -.503E+03   0.198E+04 0.103E+04 0.502E+03   0.296E+01 0.153E+01 0.486E+00   0.135E-04 -.353E-04 0.634E-04
   -.771E+03 -.973E+03 0.197E+04   0.768E+03 0.970E+03 -.197E+04   0.250E+01 0.317E+01 -.418E+01   -.332E-04 0.113E-03 0.449E-04
   -.214E+04 0.225E+03 0.195E+02   0.214E+04 -.224E+03 -.193E+02   0.827E+00 -.873E+00 -.256E+00   0.642E-04 -.480E-04 0.574E-04
   -.200E+04 0.117E+04 0.595E+03   0.200E+04 -.117E+04 -.594E+03   0.653E+01 -.300E+01 -.469E+00   0.306E-04 0.569E-04 0.164E-03
   -.908E+03 -.204E+04 -.225E+03   0.908E+03 0.204E+04 0.224E+03   -.451E+00 0.389E+01 0.516E+00   0.575E-04 0.386E-04 -.188E-04
   -.954E+03 -.188E+04 0.975E+03   0.951E+03 0.187E+04 -.970E+03   0.336E+01 0.837E+01 -.430E+01   -.122E-04 0.149E-04 0.830E-05
   -.355E+03 0.159E+03 0.233E+04   0.354E+03 -.158E+03 -.232E+04   0.610E+00 -.800E+00 -.734E+01   -.740E-04 0.168E-04 0.153E-04
   -.149E+04 -.850E+03 -.159E+04   0.149E+04 0.846E+03 0.158E+04   0.538E+01 0.485E+01 0.774E+01   0.412E-04 -.218E-05 -.212E-04
   -.811E+03 0.135E+04 0.178E+04   0.808E+03 -.135E+04 -.177E+04   0.230E+01 -.545E+01 -.346E+01   0.111E-03 -.737E-04 -.632E-04
   -.191E+04 0.576E+03 -.124E+04   0.191E+04 -.574E+03 0.123E+04   0.259E+01 -.250E+01 0.463E+01   -.273E-04 -.490E-05 -.174E-04
   -.798E+03 -.145E+04 -.112E+04   0.797E+03 0.145E+04 0.112E+04   0.898E+00 -.366E-01 0.163E+00   0.236E-04 -.363E-04 0.167E-04
   -.144E+04 0.160E+04 -.876E+03   0.143E+04 -.159E+04 0.873E+03   0.201E+01 -.332E+01 0.303E+01   0.454E-04 0.112E-04 0.942E-04
   -.705E+03 0.328E+03 -.566E+03   0.706E+03 -.329E+03 0.566E+03   -.408E+00 0.437E+00 0.509E-01   -.218E-04 0.186E-04 0.991E-05
   -.675E+03 -.523E+03 0.623E+03   0.674E+03 0.522E+03 -.622E+03   0.988E+00 0.148E+01 -.113E+01   -.862E-04 -.370E-04 0.729E-04
   -.903E+03 0.220E+04 0.148E+03   0.901E+03 -.219E+04 -.147E+03   0.210E+01 -.663E+01 -.774E+00   0.133E-03 0.217E-04 0.937E-04
   -.557E+03 0.930E+03 0.591E+03   0.556E+03 -.927E+03 -.590E+03   0.673E+00 -.224E+01 -.174E+01   0.943E-04 0.345E-04 0.840E-04
   0.157E+02 -.138E+04 -.170E+03   -.155E+02 0.138E+04 0.170E+03   -.183E+00 -.254E+00 -.407E+00   -.458E-04 -.535E-04 -.562E-04
   0.499E+03 -.517E+03 0.202E+04   -.499E+03 0.516E+03 -.202E+04   0.393E-01 0.111E+01 -.177E+01   -.132E-03 0.421E-04 0.649E-04
   -.936E+03 0.633E+02 -.191E+04   0.935E+03 -.629E+02 0.190E+04   0.339E+00 -.390E+00 0.189E+01   0.700E-04 0.111E-04 0.773E-04
   0.886E+02 -.182E+04 0.124E+04   -.893E+02 0.181E+04 -.124E+04   0.596E+00 0.203E+01 -.266E+01   -.106E-03 0.416E-04 -.474E-04
   0.594E+03 0.980E+03 0.189E+04   -.594E+03 -.978E+03 -.189E+04   0.697E+00 -.143E+01 -.176E+01   -.150E-03 0.130E-03 -.215E-04
   0.447E+03 -.229E+04 0.439E+03   -.449E+03 0.228E+04 -.439E+03   0.179E+01 0.854E+01 -.381E+00   0.228E-04 -.436E-04 -.472E-05
   0.123E+01 -.179E+04 -.158E+04   -.371E+01 0.179E+04 0.157E+04   0.249E+01 0.606E+01 0.270E+01   -.308E-06 0.252E-04 0.795E-04
   0.344E+03 0.213E+04 0.101E+04   -.343E+03 -.212E+04 -.100E+04   -.175E+01 -.539E+01 -.255E+01   -.756E-04 0.306E-04 -.214E-04
   0.371E+03 0.340E+03 0.459E+03   -.370E+03 -.339E+03 -.459E+03   -.942E+00 -.758E+00 -.808E+00   -.323E-04 0.869E-04 0.518E-04
   0.210E+03 -.785E+02 -.104E+04   -.208E+03 0.789E+02 0.104E+04   -.138E+01 -.331E+00 0.126E+01   0.185E-04 -.536E-05 -.147E-04
   0.200E+03 -.486E+03 -.229E+04   -.202E+03 0.484E+03 0.229E+04   0.192E+01 0.222E+01 0.526E+01   0.124E-04 0.733E-04 -.288E-04
   0.139E+03 0.214E+04 -.514E+03   -.139E+03 -.213E+04 0.514E+03   -.698E+00 -.275E+01 -.607E+00   -.235E-05 0.122E-03 0.164E-03
   0.960E+03 -.104E+04 0.142E+04   -.960E+03 0.104E+04 -.142E+04   -.604E+00 0.821E+00 0.434E+00   0.734E-04 -.219E-04 -.654E-04
   -.352E+03 0.168E+04 -.136E+04   0.351E+03 -.168E+04 0.136E+04   0.152E+01 -.134E+01 0.212E+01   0.809E-04 0.590E-04 -.100E-03
   -.278E+03 0.997E+03 -.203E+04   0.276E+03 -.991E+03 0.203E+04   0.251E+01 -.575E+01 0.796E+01   -.540E-04 0.117E-04 -.638E-04
   0.138E+04 0.496E+03 0.178E+04   -.138E+04 -.493E+03 -.177E+04   -.364E+01 -.216E+01 -.225E+01   0.207E-04 0.657E-04 0.317E-04
   0.812E+03 -.190E+04 -.857E+03   -.813E+03 0.190E+04 0.855E+03   0.410E+00 0.377E+01 0.139E+01   -.290E-04 0.517E-04 0.616E-05
   0.115E+04 0.185E+04 0.662E+03   -.115E+04 -.184E+04 -.661E+03   -.112E+01 -.327E+01 -.947E+00   -.118E-03 0.931E-04 0.397E-04
   0.107E+04 -.186E+03 -.141E+03   -.107E+04 0.186E+03 0.140E+03   -.240E+01 -.147E+00 0.472E+00   0.620E-06 -.484E-04 -.246E-04
   0.895E+03 0.164E+04 -.667E+03   -.894E+03 -.164E+04 0.666E+03   -.940E+00 -.566E+00 0.505E+00   0.593E-04 0.563E-04 -.606E-04
   0.125E+04 -.618E+03 -.182E+04   -.125E+04 0.619E+03 0.182E+04   -.242E+01 -.944E+00 0.259E+01   0.268E-05 0.455E-04 -.113E-04
   0.138E+04 -.167E+04 0.529E+03   -.138E+04 0.167E+04 -.527E+03   -.253E+01 0.233E+01 -.174E+01   0.104E-03 0.268E-04 0.177E-04
   0.957E+03 0.116E+04 -.176E+04   -.955E+03 -.115E+04 0.175E+04   -.179E+01 -.351E+01 0.406E+01   0.104E-03 0.211E-05 0.150E-04
   0.173E+04 -.103E+03 0.132E+04   -.173E+04 0.103E+03 -.132E+04   -.374E+01 0.401E+00 -.226E+01   0.154E-03 0.486E-04 -.395E-04
   0.169E+04 0.142E+04 0.400E+03   -.169E+04 -.142E+04 -.400E+03   -.253E+01 -.297E+01 -.584E+00   0.112E-03 -.384E-04 -.107E-03
   0.177E+04 -.825E+03 -.104E+04   -.177E+04 0.824E+03 0.104E+04   -.393E+01 0.117E+01 0.134E+01   0.709E-04 0.839E-04 0.390E-04
   0.167E+04 0.974E+03 -.122E+04   -.167E+04 -.971E+03 0.122E+04   -.232E+01 -.290E+01 0.256E+01   0.405E-04 0.274E-04 -.178E-04
   0.195E+04 -.739E+03 0.302E+03   -.194E+04 0.735E+03 -.300E+03   -.930E+01 0.421E+01 -.210E+01   0.743E-04 0.358E-04 0.344E-04
   0.211E+04 0.672E+03 -.169E+03   -.210E+04 -.669E+03 0.169E+03   -.618E+01 -.338E+01 0.582E-01   0.105E-03 -.687E-04 0.534E-04
 -----------------------------------------------------------------------------------------------
   -.149E+01 0.278E+01 -.145E+01   0.728E-11 0.909E-12 0.296E-11   0.160E+01 -.267E+01 0.163E+01   0.912E-03 0.106E-02 0.668E-03
 
 
 POSITION                                       TOTAL-FORCE (eV/Angst)
 -----------------------------------------------------------------------------------
     15.62727     13.48881     10.22343         0.010725      0.009211     -0.035397
     15.09472     11.29290      9.04969         0.033594      0.022853     -0.021190
     15.56619     13.32186     12.69192         0.027192     -0.026944      0.026560
     13.87859     13.41915      8.33816         0.036528      0.002304     -0.015142
     15.56168     11.27127     11.43614         0.025037      0.033766     -0.036939
     15.82562      9.22923     10.17083         0.018018      0.036877      0.034656
     13.87511     14.80488     11.64760        -0.001306      0.003106     -0.032934
     14.43700     15.50942      9.44118         0.020470      0.020922      0.028326
     13.29893     11.20723      7.44768        -0.032476     -0.034291     -0.020199
     15.34656     13.24450     15.12912        -0.000444      0.043960      0.025626
     14.01721      9.04917      8.41616        -0.017006     -0.032582     -0.003882
     15.41744     11.16788     13.90220         0.005068     -0.004518      0.003248
     13.41855     13.62124     13.73672         0.002712     -0.008135     -0.010667
     14.63400      9.20567     12.57935         0.022400      0.010095     -0.024726
     13.30597     11.27152     12.66649        -0.023956     -0.000078     -0.017122
     13.41964     12.55008     10.58482        -0.000620      0.008547      0.005466
     14.21406      7.58527     10.80167         0.002676      0.010705      0.010527
     13.43815      9.98802     10.51642         0.014780     -0.008561     -0.046732
     11.61513     13.73595     12.07186         0.010118     -0.000989      0.003774
     11.61274     12.43158      8.71352         0.008321     -0.019478      0.025589
     13.40577     11.73205     15.27189         0.002177     -0.003027     -0.002627
     12.16638     14.63137      9.79438        -0.026280     -0.010389     -0.046513
     11.62952      9.99570      8.70048         0.013173     -0.032323      0.010405
     10.32544     15.63549     11.10481         0.011718     -0.006757      0.029256
     11.35319     14.25974     14.79237         0.018544     -0.055921     -0.002123
     12.16584      7.82278      9.63712        -0.030962      0.009080      0.005409
     11.32819     11.33340     11.08611        -0.009146     -0.012049     -0.024034
     11.33075     12.02959     13.82985        -0.010335     -0.007598      0.004969
     11.28444     12.39187     16.36294         0.005242     -0.040165      0.006514
     12.25958      8.51862     12.09427         0.019014      0.036139     -0.002037
      9.92492     13.49440     10.10916        -0.000106      0.012743     -0.010212
     12.48008      9.62166     14.28701         0.005912      0.017517     -0.032341
     12.24563     10.15413     16.69017         0.010506      0.024120      0.003755
      9.54081     11.16635      9.39798        -0.028313     -0.002784      0.015801
      9.54990     14.65571     13.23488        -0.033817      0.029567      0.022434
     10.34153      9.08343     10.58172        -0.006426     -0.053507      0.006520
      9.39793     12.34102     12.28547         0.002725     -0.001250     -0.009205
     10.35042      9.86242     12.93665         0.005139      0.020587      0.024422
      9.28751     12.88410     14.96253        -0.017774     -0.043430     -0.029401
      8.06864     14.70049     11.31653        -0.000785      0.003115      0.042980
     10.24450     10.43325     15.33317        -0.037873      0.025927      0.017553
      7.67015     12.44731     10.40486        -0.017875      0.012298      0.023488
      8.40013     10.26334     11.44347         0.001343     -0.022461     -0.038662
      7.42541     13.39795     13.39498        -0.022665      0.010905      0.013108
      8.23142     10.91346     13.89776         0.012645      0.025290      0.021101
      5.86807     13.70240     11.53406         0.001004      0.003014      0.022397
      6.46789     11.48099     12.29908        -0.028618     -0.005413      0.028202
 -----------------------------------------------------------------------------------
    total drift:                                0.111161      0.115656      0.181315


--------------------------------------------------------------------------------------------------------



  FREE ENERGIE OF THE ION-ELECTRON SYSTEM (eV)
  ---------------------------------------------------
  free  energy   TOTEN  =      -138.88003807 eV

  energy  without entropy=     -138.88003807  energy(sigma->0) =     -138.88003807
 


--------------------------------------------------------------------------------------------------------


    POTLOK:  cpu time    0.3880: real time    0.3876


--------------------------------------------------------------------------------------------------------




--------------------------------------------------------------------------------------------------------


  
 reached required accuracy - stopping structural energy minimisation
     LOOP+:  cpu time  703.8120: real time  704.2792
    4ORBIT:  cpu time    0.0000: real time    0.0000
 


 total charge     
 
# of ion       s       p       d       tot
------------------------------------------
    1        0.454   0.237   9.226   9.917
    2        0.453   0.285   9.208   9.945
    3        0.457   0.259   9.227   9.943
    4        0.467   0.243   9.229   9.938
    5        0.452   0.327   9.196   9.975
    6        0.470   0.205   9.246   9.921
    7        0.454   0.250   9.226   9.930
    8        0.489   0.144   9.266   9.899
    9        0.483   0.203   9.243   9.929
   10        0.475   0.143   9.277   9.896
   11        0.455   0.218   9.237   9.910
   12        0.462   0.233   9.238   9.933
   13        0.479   0.331   9.187   9.997
   14        0.441   0.260   9.224   9.924
   15        0.449   0.372   9.201  10.022
   16        0.438   0.349   9.217  10.004
   17        0.473   0.205   9.249   9.928
   18        0.445   0.363   9.218  10.026
   19        0.437   0.350   9.181   9.968
   20        0.457   0.294   9.205   9.955
   21        0.458   0.299   9.206   9.963
   22        0.464   0.278   9.206   9.948
   23        0.467   0.289   9.203   9.958
   24        0.468   0.190   9.253   9.911
   25        0.450   0.223   9.251   9.924
   26        0.486   0.206   9.240   9.932
   27        0.434   0.339   9.205   9.979
   28        0.455   0.376   9.207  10.038
   29        0.459   0.221   9.243   9.923
   30        0.460   0.265   9.208   9.933
   31        0.459   0.321   9.190   9.970
   32        0.455   0.256   9.208   9.919
   33        0.494   0.137   9.264   9.894
   34        0.459   0.267   9.208   9.934
   35        0.451   0.278   9.222   9.951
   36        0.475   0.271   9.213   9.959
   37        0.434   0.345   9.227  10.005
   38        0.451   0.306   9.197   9.954
   39        0.451   0.270   9.209   9.930
   40        0.477   0.241   9.216   9.934
   41        0.442   0.247   9.239   9.927
   42        0.456   0.256   9.227   9.940
   43        0.470   0.261   9.222   9.953
   44        0.454   0.256   9.224   9.934
   45        0.467   0.236   9.222   9.925
   46        0.500   0.138   9.260   9.898
   47        0.474   0.210   9.245   9.929
--------------------------------------------------
tot         21.659  12.252 433.515 467.426
 


 magnetization (x)
 
# of ion       s       p       d       tot
------------------------------------------
    1        0.014   0.006   0.007   0.027
    2       -0.000   0.001   0.004   0.005
    3        0.002   0.005   0.005   0.011
    4        0.000   0.002   0.009   0.011
    5        0.000   0.002   0.006   0.008
    6        0.001   0.004   0.003   0.007
    7        0.000   0.004   0.006   0.010
    8        0.005   0.004   0.006   0.015
    9        0.002   0.002   0.010   0.014
   10        0.002   0.001   0.005   0.008
   11        0.007   0.003   0.002   0.012
   12       -0.000   0.002   0.006   0.007
   13        0.002   0.004   0.002   0.008
   14        0.006   0.002   0.002   0.009
   15        0.003   0.002   0.003   0.009
   16        0.008   0.001   0.012   0.020
   17        0.000   0.004   0.004   0.008
   18        0.000   0.001   0.007   0.008
   19        0.002   0.007   0.001   0.009
   20       -0.000   0.006   0.003   0.008
   21       -0.000   0.003  -0.002   0.001
   22        0.005   0.002   0.006   0.013
   23        0.010   0.002  -0.000   0.012
   24        0.006   0.000   0.005   0.011
   25       -0.000   0.002   0.008   0.009
   26        0.001   0.000   0.006   0.008
   27        0.006   0.000   0.022   0.028
   28        0.003   0.002   0.010   0.014
   29        0.002   0.001   0.000   0.002
   30       -0.001   0.003   0.001   0.004
   31       -0.000   0.003   0.013   0.016
   32        0.002  -0.000   0.004   0.006
   33       -0.000   0.002   0.003   0.005
   34        0.003   0.007   0.006   0.017
   35        0.003   0.012   0.005   0.020
   36        0.005   0.005   0.004   0.014
   37        0.007   0.002   0.012   0.021
   38        0.001   0.003   0.005   0.009
   39        0.013   0.008   0.008   0.028
   40       -0.000   0.000   0.013   0.013
   41        0.000   0.001   0.003   0.004
   42        0.005   0.004   0.008   0.017
   43        0.004   0.005   0.006   0.015
   44        0.008   0.009  -0.001   0.016
   45        0.001   0.001   0.007   0.009
   46        0.001   0.002   0.005   0.008
   47        0.014   0.001   0.002   0.017
--------------------------------------------------
tot          0.151   0.140   0.263   0.554
 

 total amount of memory used by VASP MPI-rank0    89116. kBytes
=======================================================================

   base      :      30000. kBytes
   nonl-proj :       6218. kBytes
   fftplans  :       8817. kBytes
   grid      :      22544. kBytes
   one-center:         77. kBytes
   wavefun   :      21460. kBytes
 
  
  
 General timing and accounting informations for this job:
 ========================================================
  
                  Total CPU time used (sec):      713.540
                            User time (sec):      709.340
                          System time (sec):        4.200
                         Elapsed time (sec):      714.118
  
                   Maximum memory used (kb):       40628.
                   Average memory used (kb):           0.
  
                          Minor page faults:        18348
                          Major page faults:           32
                 Voluntary context switches:          600
