 vasp.5.4.4.18Apr17-6-g9f103f2a35 (build Jan 23 2020 13:04:52) gamma-only       
  
 executed on           IFC91_ompi date 2020.12.30  14:41:54
 running on   44 total cores
 distrk:  each k-point on   44 cores,    1 groups
 distr:  one band on NCORES_PER_BAND=  11 cores,    4 groups


--------------------------------------------------------------------------------------------------------


 INCAR:
 POTCAR:    PAW_PBE Cu 22Jun2005                  
 POTCAR:    PAW_PBE Cu 22Jun2005                  
   VRHFIN =Cu: d10 p1                                                           
   LEXCH  = PE                                                                  
   EATOM  =  1390.9808 eV,  102.2342 Ry                                         
                                                                                
   TITEL  = PAW_PBE Cu 22Jun2005                                                
   LULTRA =        F    use ultrasoft PP ?                                      
   IUNSCR =        1    unscreen: 0-lin 1-nonlin 2-no                           
   RPACOR =    2.000    partial core radius                                     
   POMASS =   63.546; ZVAL   =   11.000    mass and valenz                      
   RCORE  =    2.300    outmost cutoff radius                                   
   RWIGS  =    2.200; RWIGS  =    1.164    wigner-seitz radius (au A)           
   ENMAX  =  295.446; ENMIN  =  221.585 eV                                      
   ICORE  =        3    local potential                                         
   LCOR   =        T    correct aug charges                                     
   LPAW   =        T    paw PP                                                  
   EAUG   =  586.980                                                            
   DEXC   =    0.000                                                            
   RMAX   =    2.344    core radius for proj-oper                               
   RAUG   =    1.300    factor for augmentation sphere                          
   RDEP   =    2.302    radius for radial grids                                 
   RDEPT  =    1.771    core radius for aug-charge                              
                                                                                
   Atomic configuration                                                         
    9 entries                                                                   
     n  l   j            E        occ.                                          
     1  0  0.50     -8850.2468   2.0000                                         
     2  0  0.50     -1062.3498   2.0000                                         
     2  1  1.50      -916.8226   6.0000                                         
     3  0  0.50      -114.6929   2.0000                                         
     3  1  1.50       -72.1325   6.0000                                         
     3  2  2.50        -5.0394  10.0000                                         
     4  0  0.50        -4.6097   1.0000                                         
     4  1  0.50        -4.0817   0.0000                                         
     4  3  2.50        -1.3606   0.0000                                         
   Description                                                                  
     l       E           TYP  RCUT    TYP  RCUT                                 
     2     -5.0393973     23  2.200                                             
     2     10.8846608     23  2.200                                             
     0     -4.6097109     23  2.200                                             
     0      8.2520465     23  2.200                                             
     1     -2.7211652     23  2.200                                             
     1     21.7055443     23  2.200                                             
     3      2.7211652     23  2.300                                             
  local pseudopotential read in
  partial core-charges read in
  partial kinetic energy density read in
  atomic valenz-charges read in
  non local Contribution for L=           2  read in
    real space projection operators read in
  non local Contribution for L=           2  read in
    real space projection operators read in
  non local Contribution for L=           0  read in
    real space projection operators read in
  non local Contribution for L=           0  read in
    real space projection operators read in
  non local Contribution for L=           1  read in
    real space projection operators read in
  non local Contribution for L=           1  read in
    real space projection operators read in
    PAW grid and wavefunctions read in
 
   number of l-projection  operators is LMAX  =           6
   number of lm-projection operators is LMMAX =          18
 

 ----------------------------------------------------------------------------- 
|                                                                             |
|  ADVICE TO THIS USER RUNNING 'VASP/VAMP'   (HEAR YOUR MASTER'S VOICE ...):  |
|                                                                             |
|      You have a (more or less) 'large supercell' and for larger cells       |
|      it might be more efficient to use real space projection opertators     |
|      So try LREAL= Auto  in the INCAR   file.                               |
|      Mind:          For very  accurate calculation you might also keep the  |
|      reciprocal projection scheme          (i.e. LREAL=.FALSE.)             |
|                                                                             |
 ----------------------------------------------------------------------------- 

  PAW_PBE Cu 22Jun2005                  :
 energy of atom  1       EATOM=-1390.9808
 kinetic energy error for atom=    0.0452 (will be added to EATOM!!)
 
 
 POSCAR: unknown system                          
  positions in direct lattice
  No initial velocities read in
 exchange correlation table for  LEXCH =        8
   RHO(1)=    0.500       N(1)  =     2000
   RHO(2)=  100.500       N(2)  =     4000
 


--------------------------------------------------------------------------------------------------------


 ion  position               nearest neighbor table
   1  0.485  0.356  0.347-   9 2.41   4 2.44   6 2.47   2 2.47   3 2.48  10 2.56
   2  0.443  0.452  0.329-  10 2.38   1 2.47   5 2.48   8 2.49   4 2.59  11 2.60
   3  0.454  0.294  0.429-   4 2.44  13 2.45   1 2.48   9 2.49  12 2.52
   4  0.400  0.380  0.403-   1 2.44   3 2.44   7 2.45   5 2.49  14 2.53  10 2.56  12 2.57   2 2.59

   5  0.383  0.486  0.411-  11 2.41  16 2.44  14 2.47   2 2.48   4 2.49   7 2.57  15 2.59  25 2.71
                            10 2.73
   6  0.574  0.414  0.352-   8 2.37  18 2.44   1 2.47   9 2.49  10 2.53  20 2.62
   7  0.320  0.413  0.465-   4 2.45  14 2.45  19 2.47  16 2.48  12 2.55   5 2.57
   8  0.535  0.506  0.330-   6 2.37  11 2.39  21 2.46  20 2.47   2 2.49  24 2.54  10 2.76
   9  0.554  0.335  0.422-   1 2.41  13 2.42  23 2.46   6 2.49   3 2.49  18 2.51
  10  0.492  0.440  0.418-   2 2.38  24 2.44  14 2.49   6 2.53   1 2.56   4 2.56  18 2.58  22 2.62
                             5 2.73   8 2.76
  11  0.457  0.552  0.378-   8 2.39  17 2.41   5 2.41  21 2.50  15 2.50  25 2.59   2 2.60  24 2.65

  12  0.388  0.336  0.504-  14 2.39   3 2.52  13 2.53   7 2.55   4 2.57  26 2.62  19 2.66
  13  0.495  0.354  0.506-   9 2.42   3 2.45  23 2.46  26 2.46  22 2.49  12 2.53  14 2.57  37 2.62

  14  0.419  0.433  0.497-  12 2.39  22 2.44   7 2.45   5 2.47  16 2.48  26 2.48  19 2.48  10 2.49
                             4 2.53  25 2.54  13 2.57  30 2.57
  15  0.381  0.593  0.443-  25 2.41  17 2.49  11 2.50  32 2.54  33 2.55   5 2.59  16 2.60
  16  0.344  0.509  0.506-  32 2.40  31 2.44   5 2.44  14 2.48   7 2.48  19 2.56  15 2.60  25 2.70
                            30 2.76
  17  0.460  0.653  0.402-  11 2.41  33 2.44  35 2.48  15 2.49  21 2.50
  18  0.597  0.429  0.454-  23 2.42   6 2.44  39 2.47  28 2.48  24 2.50   9 2.51  10 2.58  22 2.60
                            20 2.70
  19  0.341  0.418  0.569-  26 2.45   7 2.47  34 2.48  14 2.48  31 2.49  16 2.56  12 2.66
  20  0.632  0.508  0.376-  24 2.39  27 2.47   8 2.47  28 2.54  29 2.58   6 2.62  18 2.70
  21  0.550  0.604  0.368-  24 2.44  29 2.46   8 2.46  11 2.50  17 2.50  35 2.54
  22  0.517  0.457  0.527-  38 2.42  37 2.43  14 2.44  13 2.49  25 2.49  18 2.60  30 2.61  10 2.62
                            39 2.68  24 2.72
  23  0.601  0.346  0.517-  18 2.42   9 2.46  13 2.46  37 2.47  39 2.51
  24  0.550  0.525  0.437-  20 2.39  38 2.39  10 2.44  21 2.44  18 2.50  25 2.52  35 2.54   8 2.54
                            29 2.57  11 2.65  22 2.72  28 2.78
  25  0.455  0.537  0.488-  15 2.41  41 2.49  22 2.49  24 2.52  30 2.52  14 2.54  11 2.59  32 2.69
                            16 2.70   5 2.71
  26  0.439  0.387  0.591-  36 2.42  19 2.45  13 2.46  14 2.48  34 2.54  37 2.55  30 2.59  12 2.62

  27  0.720  0.557  0.409-  29 2.41  28 2.43  42 2.45  20 2.47
  28  0.661  0.510  0.481-  39 2.41  42 2.42  27 2.43  29 2.45  18 2.48  20 2.54  46 2.56  38 2.57
                            24 2.78
  29  0.631  0.601  0.437-  27 2.41  28 2.45  35 2.46  21 2.46  42 2.49  45 2.52  24 2.57  20 2.58

  30  0.430  0.498  0.587-  34 2.39  43 2.50  41 2.50  25 2.52  36 2.54  31 2.54  14 2.57  26 2.59
                            22 2.61  32 2.69  44 2.74  16 2.76
  31  0.325  0.517  0.609-  16 2.44  34 2.46  43 2.47  19 2.49  30 2.54  32 2.56
  32  0.378  0.595  0.552-  33 2.40  16 2.40  43 2.41  41 2.52  15 2.54  47 2.54  31 2.56  30 2.69
                            25 2.69
  33  0.440  0.662  0.504-  32 2.40  17 2.44  35 2.44  47 2.46  15 2.55  41 2.56  48 2.56
  34  0.384  0.447  0.663-  30 2.39  36 2.44  31 2.46  19 2.48  26 2.54
  35  0.535  0.627  0.474-  33 2.44  29 2.46  17 2.48  48 2.51  38 2.52  45 2.54  21 2.54  24 2.54
                            41 2.79
  36  0.489  0.444  0.663-  44 2.41  37 2.41  26 2.42  34 2.44  40 2.46  30 2.54
  37  0.549  0.389  0.599-  36 2.41  22 2.43  39 2.46  23 2.47  26 2.55  40 2.61  13 2.62
  38  0.571  0.546  0.536-  24 2.39  46 2.40  22 2.42  45 2.47  41 2.47  49 2.48  35 2.52  40 2.54
                            28 2.57  39 2.74
  39  0.628  0.443  0.554-  28 2.41  40 2.42  37 2.46  18 2.47  23 2.51  46 2.59  22 2.68  38 2.74

  40  0.578  0.493  0.631-  39 2.42  44 2.43  36 2.46  49 2.51  46 2.54  38 2.54  37 2.61
  41  0.484  0.591  0.576-  47 2.38  48 2.40  44 2.43  38 2.47  25 2.49  49 2.50  30 2.50  32 2.52
                            33 2.56  43 2.63  35 2.79
  42  0.713  0.597  0.506-  28 2.42  45 2.44  27 2.45  29 2.49  46 2.50
  43  0.400  0.578  0.652-  44 2.40  32 2.41  31 2.47  30 2.50  47 2.51  41 2.63
  44  0.498  0.547  0.671-  43 2.40  36 2.41  40 2.43  41 2.43  49 2.46  30 2.74
  45  0.622  0.639  0.539-  42 2.44  49 2.46  48 2.46  38 2.47  29 2.52  35 2.54  46 2.61
  46  0.662  0.545  0.586-  38 2.40  42 2.50  49 2.52  40 2.54  28 2.56  39 2.59  45 2.61
  47  0.430  0.672  0.609-  41 2.38  33 2.46  43 2.51  48 2.52  32 2.54
  48  0.529  0.683  0.566-  41 2.40  45 2.46  35 2.51  47 2.52  33 2.56  49 2.65
  49  0.578  0.600  0.627-  44 2.46  45 2.46  38 2.48  41 2.50  40 2.51  46 2.52  48 2.65
 
  LATTYP: Found a simple cubic cell.
 ALAT       =    23.1915290000
  
  Lattice vectors:
  
 A1 = (  23.1915290000,   0.0000000000,   0.0000000000)
 A2 = (   0.0000000000,  23.1915290000,   0.0000000000)
 A3 = (   0.0000000000,   0.0000000000,  23.1915290000)


Analysis of symmetry for initial positions (statically):
=====================================================================
 Subroutine PRICEL returns:
 Original cell was already a primitive cell.
 

 Routine SETGRP: Setting up the symmetry group for a 
 simple cubic supercell.


 Subroutine GETGRP returns: Found  1 space group operations
 (whereof  1 operations were pure point group operations)
 out of a pool of 48 trial point group operations.


The static configuration has the point symmetry C_1 .


Analysis of symmetry for dynamics (positions and initial velocities):
=====================================================================
 Subroutine PRICEL returns:
 Original cell was already a primitive cell.
 

 Routine SETGRP: Setting up the symmetry group for a 
 simple cubic supercell.


 Subroutine GETGRP returns: Found  1 space group operations
 (whereof  1 operations were pure point group operations)
 out of a pool of 48 trial point group operations.


The dynamic configuration has the point symmetry C_1 .


Analysis of structural, dynamic, and magnetic symmetry:
=====================================================================
 Subroutine PRICEL returns:
 Original cell was already a primitive cell.
 

 Routine SETGRP: Setting up the symmetry group for a 
 simple cubic supercell.


 Subroutine GETGRP returns: Found  1 space group operations
 (whereof  1 operations were pure point group operations)
 out of a pool of 48 trial point group operations.


The magnetic configuration has the point symmetry C_1 .


 Subroutine INISYM returns: Found  1 space group operations
 (whereof  1 operations are pure point group operations),
 and found     1 'primitive' translations

 
 
 KPOINTS: Gamma-point only                        
  k-points in reciprocal lattice
Space group operators:
 irot       det(A)        alpha          n_x          n_y          n_z        tau_x        tau_y        tau_z
    1     1.000000     0.000000     1.000000     0.000000     0.000000     0.000000     0.000000     0.000000


--------------------------------------------------------------------------------------------------------




 Dimension of arrays:
   k-points           NKPTS =      1   k-points in BZ     NKDIM =      1   number of bands    NBANDS=    400
   number of dos      NEDOS =    301   number of ions     NIONS =     49
   non local maximal  LDIM  =      6   non local SUM 2l+1 LMDIM =     18
   total plane-waves  NPLWV = 941192
   max r-space proj   IRMAX =      1   max aug-charges    IRDMAX=   2385
   dimension x,y,z NGX =    98 NGY =   98 NGZ =   98
   dimension x,y,z NGXF=   196 NGYF=  196 NGZF=  196
   support grid    NGXF=   196 NGYF=  196 NGZF=  196
   ions per type =              49
   NGX,Y,Z   is equivalent  to a cutoff of   7.03,  7.03,  7.03 a.u.
   NGXF,Y,Z  is equivalent  to a cutoff of  14.05, 14.05, 14.05 a.u.

 SYSTEM =  unknown system                          
 POSCAR =  unknown system                          

 Startparameter for this run:
   NWRITE =      2    write-flag & timer
   PREC   = normal    normal or accurate (medium, high low for compatibility)
   ISTART =      0    job   : 0-new  1-cont  2-samecut
   ICHARG =      2    charge: 1-file 2-atom 10-const
   ISPIN  =      2    spin polarized calculation?
   LNONCOLLINEAR =      F non collinear calculations
   LSORBIT =      F    spin-orbit coupling
   INIWAV =      1    electr: 0-lowe 1-rand  2-diag
   LASPH  =      F    aspherical Exc in radial PAW
   METAGGA=      F    non-selfconsistent MetaGGA calc.

 Electronic Relaxation 1
   ENCUT  =  295.4 eV  21.71 Ry    4.66 a.u.  32.50 32.50 32.50*2*pi/ulx,y,z
   ENINI  =  295.4     initial cutoff
   ENAUG  =  587.0 eV  augmentation charge cutoff
   NELM   =     60;   NELMIN=  2; NELMDL= -5     # of ELM steps 
   EDIFF  = 0.1E-04   stopping-criterion for ELM
   LREAL  =      F    real-space projection
   NLSPLINE    = F    spline interpolate recip. space projectors
   LCOMPAT=      F    compatible to vasp.4.4
   GGA_COMPAT  = T    GGA compatible to vasp.4.4-vasp.4.6
   LMAXPAW     = -100 max onsite density
   LMAXMIX     =    2 max onsite mixed and CHGCAR
   VOSKOWN=      0    Vosko Wilk Nusair interpolation
   ROPT   =    0.00000
 Ionic relaxation
   EDIFFG = -.1E+00   stopping-criterion for IOM
   NSW    =    101    number of steps for IOM
   NBLOCK =      1;   KBLOCK =    101    inner block; outer block 
   IBRION =      2    ionic relax: 0-MD 1-quasi-New 2-CG
   NFREE  =      1    steps in history (QN), initial steepest desc. (CG)
   ISIF   =      2    stress and relaxation
   IWAVPR =     11    prediction:  0-non 1-charg 2-wave 3-comb
   ISYM   =      2    0-nonsym 1-usesym 2-fastsym
   LCORR  =      T    Harris-Foulkes like correction to forces

   POTIM  = 0.5000    time-step for ionic-motion
   TEIN   =    0.0    initial temperature
   TEBEG  =    0.0;   TEEND  =   0.0 temperature during run
   SMASS  =  -3.00    Nose mass-parameter (am)
   estimated Nose-frequenzy (Omega)   =  0.10E-29 period in steps =****** mass=  -0.123E-25a.u.
   SCALEE = 1.0000    scale energy and forces
   NPACO  =    256;   APACO  = 16.0  distance and # of slots for P.C.
   PSTRESS=    0.0 pullay stress

  Mass of Ions in am
   POMASS =  63.55
  Ionic Valenz
   ZVAL   =  11.00
  Atomic Wigner-Seitz radii
   RWIGS  =  -1.00
  virtual crystal weights 
   VCA    =   1.00
   NELECT =     539.0000    total number of electrons
   NUPDOWN=      -1.0000    fix difference up-down

 DOS related values:
   EMIN   =  10.00;   EMAX   =-10.00  energy-range for DOS
   EFERMI =   0.00
   ISMEAR =     0;   SIGMA  =   0.00  broadening in eV -4-tet -1-fermi 0-gaus

 Electronic relaxation 2 (details)
   IALGO  =     38    algorithm
   LDIAG  =      T    sub-space diagonalisation (order eigenvalues)
   LSUBROT=      F    optimize rotation matrix (better conditioning)
   TURBO    =      0    0=normal 1=particle mesh
   IRESTART =      0    0=no restart 2=restart with 2 vectors
   NREBOOT  =      0    no. of reboots
   NMIN     =      0    reboot dimension
   EREF     =   0.00    reference energy to select bands
   IMIX   =      4    mixing-type and parameters
     AMIX     =   0.40;   BMIX     =  1.00
     AMIX_MAG =   1.60;   BMIX_MAG =  1.00
     AMIN     =   0.10
     WC   =   100.;   INIMIX=   1;  MIXPRE=   1;  MAXMIX= -45

 Intra band minimization:
   WEIMIN = 0.0010     energy-eigenvalue tresh-hold
   EBREAK =  0.63E-08  absolut break condition
   DEPER  =   0.30     relativ break condition  

   TIME   =   0.40     timestep for ELM

  volume/ion in A,a.u.               =     254.56      1717.86
  Fermi-wavevector in a.u.,A,eV,Ry     =   0.574480  1.085610  4.490296  0.330027
  Thomas-Fermi vector in A             =   1.616186
 
 Write flags
   LWAVE        =      F    write WAVECAR
   LDOWNSAMPLE  =      F    k-point downsampling of WAVECAR
   LCHARG       =      F    write CHGCAR
   LVTOT        =      F    write LOCPOT, total local potential
   LVHAR        =      F    write LOCPOT, Hartree potential only
   LELF         =      F    write electronic localiz. function (ELF)
   LORBIT       =     11    0 simple, 1 ext, 2 COOP (PROOUT), +10 PAW based schemes


 Dipole corrections
   LMONO  =      F    monopole corrections only (constant potential shift)
   LDIPOL =      F    correct potential (dipole corrections)
   IDIPOL =      0    1-x, 2-y, 3-z, 4-all directions 
   EPSILON=  1.0000000 bulk dielectric constant

 Exchange correlation treatment:
   GGA     =    PE    GGA type
   LEXCH   =     8    internal setting for exchange type
   VOSKOWN=      0    Vosko Wilk Nusair interpolation
   LHFCALC =     F    Hartree Fock is set to
   LHFONE  =     F    Hartree Fock one center treatment
   AEXX    =    0.0000 exact exchange contribution

 Linear response parameters
   LEPSILON=     F    determine dielectric tensor
   LRPA    =     F    only Hartree local field effects (RPA)
   LNABLA  =     F    use nabla operator in PAW spheres
   LVEL    =     F    velocity operator in full k-point grid
   LINTERFAST=   F  fast interpolation
   KINTER  =     0    interpolate to denser k-point grid
   CSHIFT  =0.1000    complex shift for real part using Kramers Kronig
   OMEGAMAX=  -1.0    maximum frequency
   DEG_THRESHOLD= 0.2000000E-02 threshold for treating states as degnerate
   RTIME   =   -0.100 relaxation time in fs
  (WPLASMAI=    0.000 imaginary part of plasma frequency in eV, 0.658/RTIME)
   DFIELD  = 0.0000000 0.0000000 0.0000000 field for delta impulse in time
 
 Orbital magnetization related:
   ORBITALMAG=     F  switch on orbital magnetization
   LCHIMAG   =     F  perturbation theory with respect to B field
   DQ        =  0.001000  dq finite difference perturbation B field
   LLRAUG    =     F  two centre corrections for induced B field



--------------------------------------------------------------------------------------------------------


 conjugate gradient relaxation of ions
 charge density and potential will be updated during run
 spin polarized calculation
 Variant of blocked Davidson
 Davidson routine will perform the subspace rotation
 perform sub-space diagonalisation
    after iterative eigenvector-optimisation
 modified Broyden-mixing scheme, WC =      100.0
 initial mixing is a Kerker type mixing with AMIX =  0.4000 and BMIX =      1.0000
 Hartree-type preconditioning will be used
 using additional bands          130
 reciprocal scheme for non local part
 use partial core corrections
 calculate Harris-corrections to forces 
   (improved forces if not selfconsistent)
 use gradient corrections 
 use of overlap-Matrix (Vanderbilt PP)
 Gauss-broadening in eV      SIGMA  =   0.00


--------------------------------------------------------------------------------------------------------


  energy-cutoff  :      295.45
  volume of cell :    12473.49
      direct lattice vectors                 reciprocal lattice vectors
    23.191529000  0.000000000  0.000000000     0.043119192  0.000000000  0.000000000
     0.000000000 23.191529000  0.000000000     0.000000000  0.043119192  0.000000000
     0.000000000  0.000000000 23.191529000     0.000000000  0.000000000  0.043119192

  length of vectors
    23.191529000 23.191529000 23.191529000     0.043119192  0.043119192  0.043119192


 
 k-points in units of 2pi/SCALE and weight: Gamma-point only                        
   0.00000000  0.00000000  0.00000000       1.000
 
 k-points in reciprocal lattice and weights: Gamma-point only                        
   0.00000000  0.00000000  0.00000000       1.000
 
 position of ions in fractional coordinates (direct lattice) 
   0.48502349  0.35581388  0.34717043
   0.44281232  0.45196211  0.32907604
   0.45445167  0.29445110  0.42922941
   0.39964259  0.38047246  0.40344164
   0.38349727  0.48614232  0.41115548
   0.57385153  0.41399402  0.35194477
   0.32014788  0.41281683  0.46470765
   0.53539775  0.50624967  0.33001467
   0.55376346  0.33503050  0.42206988
   0.49154159  0.43982926  0.41843850
   0.45660667  0.55211622  0.37766790
   0.38762841  0.33575194  0.50433799
   0.49524589  0.35410535  0.50639107
   0.41882143  0.43348911  0.49689771
   0.38104076  0.59316727  0.44264296
   0.34360163  0.50869296  0.50597128
   0.46040394  0.65298316  0.40151418
   0.59654536  0.42921934  0.45368829
   0.34108796  0.41836206  0.56900072
   0.63158515  0.50813529  0.37587133
   0.55037323  0.60418965  0.36775026
   0.51668585  0.45732946  0.52696774
   0.60056602  0.34577455  0.51652956
   0.55031313  0.52494157  0.43706124
   0.45532679  0.53659198  0.48823892
   0.43945451  0.38650028  0.59069269
   0.72032586  0.55703165  0.40881555
   0.66084372  0.51002927  0.48137496
   0.63053122  0.60120673  0.43701494
   0.43040156  0.49762397  0.58678590
   0.32469217  0.51656904  0.60908559
   0.37788199  0.59490541  0.55194440
   0.44025197  0.66233048  0.50427985
   0.38370245  0.44658264  0.66301205
   0.53468581  0.62712035  0.47373486
   0.48871377  0.44414473  0.66262621
   0.54921302  0.38867841  0.59918056
   0.57125895  0.54565689  0.53588800
   0.62800427  0.44343718  0.55431459
   0.57786999  0.49250572  0.63143479
   0.48362177  0.59101262  0.57626490
   0.71268619  0.59742322  0.50597185
   0.40034762  0.57774760  0.65202952
   0.49754959  0.54717278  0.67062621
   0.62199556  0.63914580  0.53868142
   0.66210816  0.54524402  0.58581913
   0.43038519  0.67238684  0.60921686
   0.52932829  0.68344338  0.56599475
   0.57818463  0.60048894  0.62743081
 
 position of ions in cartesian coordinates  (Angst):
  11.24843633  8.25186792  8.05141310
  10.26949476 10.48169238  7.63177652
  10.53942908  6.82877122  9.95448631
   9.26832272  8.82373809  9.35642849
   8.89388806 11.27438371  9.53532424
  13.30849440  9.60115432  8.16213734
   7.42471884  9.57385348 10.77728094
  12.41669245 11.74070390  7.65354479
  12.84262134  7.76986956  9.78844586
  11.39960104 10.20031304  9.70422861
  10.58940683 12.80441933  8.75869606
   8.98969551  7.78660085 11.69636912
  11.48550942  8.21224449 11.74398319
   9.71310934 10.05327527 11.52381765
   8.83691784 13.75645594 10.26556704
   7.96864717 11.79736753 11.73424761
  10.67747133 15.14367789  9.31172775
  13.83479902  9.95425277 10.52172513
   7.91035132  9.70245585 13.19599670
  14.64742532 11.78443431  8.71703085
  12.76399672 14.01208179  8.52869082
  11.98273487 10.60616943 12.22118762
  13.92804427  8.01904050 11.97911027
  12.76260291 12.17419764 10.13611842
  10.55972445 12.44438847 11.32300707
  10.19162201  8.96353245 13.69906665
  16.70545807 12.91841566  9.48105768
  15.32597630 11.82835861 11.16382134
  14.62298307 13.94290331 10.13504465
   9.98167026 11.54066073 13.60846222
   7.53010788 11.98002587 14.12562612
   8.76366113 13.79676607 12.80043456
  10.21011633 15.36045653 11.69502077
   8.89864650 10.35693425 15.37626318
  12.40018147 14.54387978 10.98663574
  11.33401957 10.30039539 15.36731497
  12.73708968  9.01404662 13.89591333
  13.24836851 12.65461759 12.42806209
  14.56437924 10.28398622 12.85540289
  13.40168863 11.42196069 14.64393824
  11.21592830 13.70648632 13.36446414
  16.52828244 13.85515793 11.73426083
   9.28467344 13.39885022 15.12156152
  11.53893575 12.68977340 15.55284720
  14.42502807 14.82276836 12.49284577
  15.35530059 12.64504250 13.58604134
   9.98129062 15.59367890 14.12867048
  12.27593239 15.85009697 13.12628366
  13.40898561 13.92625667 14.55107983
 


--------------------------------------------------------------------------------------------------------


 use parallel FFT for orbitals z direction half grid
 k-point  1 :   0.0000 0.0000 0.0000  plane waves:   71881

 maximum and minimum number of plane-waves per node :      6540     6528

 maximum number of plane-waves:     71881
 maximum index in each direction: 
   IXMAX=   32   IYMAX=   32   IZMAX=   32
   IXMIN=  -32   IYMIN=  -32   IZMIN=    0


 parallel 3D FFT for wavefunctions:
    minimum data exchange during FFTs selected (reduces bandwidth)
 parallel 3D FFT for charge:
    minimum data exchange during FFTs selected (reduces bandwidth)


 total amount of memory used by VASP MPI-rank0    86343. kBytes
=======================================================================

   base      :      30000. kBytes
   nonl-proj :       6069. kBytes
   fftplans  :       8240. kBytes
   grid      :      20882. kBytes
   one-center:         77. kBytes
   wavefun   :      21075. kBytes
 
     INWAV:  cpu time    0.0000: real time    0.0004
 Broyden mixing: mesh for mixing (old mesh)
   NGX = 65   NGY = 65   NGZ = 65
  (NGX  =196   NGY  =196   NGZ  =196)
  gives a total of 274625 points

 initial charge density was supplied:
 charge density of overlapping atoms calculated
 number of electron     539.0000000 magnetization     147.0000000
 keeping initial charge density in first step


--------------------------------------------------------------------------------------------------------


 Maximum index for augmentation-charges          198 (set IRDMAX)


--------------------------------------------------------------------------------------------------------


 First call to EWALD:  gamma=   0.076
 Maximum number of real-space cells 3x 3x 3
 Maximum number of reciprocal cells 3x 3x 3

    FEWALD:  cpu time    0.0040: real time    0.0019


--------------------------------------- Iteration      1(   1)  ---------------------------------------


    POTLOK:  cpu time    0.3800: real time    0.4162
    SETDIJ:  cpu time    0.0160: real time    0.0128
     EDDAV:  cpu time   13.5320: real time   13.5382
       DOS:  cpu time    0.0000: real time    0.0004
    --------------------------------------------
      LOOP:  cpu time   13.9280: real time   13.9677

 eigenvalue-minimisations  :  1720
 total energy-change (2. order) : 0.3520712E+04  (-0.1299448E+05)
 number of electron     539.0000000 magnetization     147.0000000
 augmentation part      539.0000000 magnetization     147.0000000

 Free energy of the ion-electron system (eV)
  ---------------------------------------------------
  alpha Z        PSCENC =       140.77198564
  Ewald energy   TEWEN  =    198035.23354569
  -Hartree energ DENC   =   -260295.50237377
  -exchange      EXHF   =         0.00000000
  -V(xc)+E(xc)   XCENC  =      2264.40493397
  PAW double counting   =     60133.64181033   -65311.89796598
  entropy T*S    EENTRO =         0.00000000
  eigenvalues    EBANDS =       398.21652450
  atomic energy  EATOM  =     68155.84364823
  Solvation  Ediel_sol  =         0.00000000
  ---------------------------------------------------
  free energy    TOTEN  =      3520.71210861 eV

  energy without entropy =     3520.71210861  energy(sigma->0) =     3520.71210861


--------------------------------------------------------------------------------------------------------




--------------------------------------- Iteration      1(   2)  ---------------------------------------


     EDDAV:  cpu time   13.4360: real time   13.4521
       DOS:  cpu time    0.0000: real time    0.0003
    --------------------------------------------
      LOOP:  cpu time   13.4360: real time   13.4525

 eigenvalue-minimisations  :  1696
 total energy-change (2. order) :-0.3436065E+04  (-0.3187403E+04)
 number of electron     539.0000000 magnetization     147.0000000
 augmentation part      539.0000000 magnetization     147.0000000

 Free energy of the ion-electron system (eV)
  ---------------------------------------------------
  alpha Z        PSCENC =       140.77198564
  Ewald energy   TEWEN  =    198035.23354569
  -Hartree energ DENC   =   -260295.50237377
  -exchange      EXHF   =         0.00000000
  -V(xc)+E(xc)   XCENC  =      2264.40493397
  PAW double counting   =     60133.64181033   -65311.89796598
  entropy T*S    EENTRO =        -0.00000000
  eigenvalues    EBANDS =     -3037.84826887
  atomic energy  EATOM  =     68155.84364823
  Solvation  Ediel_sol  =         0.00000000
  ---------------------------------------------------
  free energy    TOTEN  =        84.64731524 eV

  energy without entropy =       84.64731524  energy(sigma->0) =       84.64731524


--------------------------------------------------------------------------------------------------------




--------------------------------------- Iteration      1(   3)  ---------------------------------------


     EDDAV:  cpu time   14.7920: real time   14.7956
       DOS:  cpu time    0.0000: real time    0.0004
    --------------------------------------------
      LOOP:  cpu time   14.7920: real time   14.7959

 eigenvalue-minimisations  :  1912
 total energy-change (2. order) :-0.1838450E+03  (-0.1730610E+03)
 number of electron     539.0000000 magnetization     147.0000000
 augmentation part      539.0000000 magnetization     147.0000000

 Free energy of the ion-electron system (eV)
  ---------------------------------------------------
  alpha Z        PSCENC =       140.77198564
  Ewald energy   TEWEN  =    198035.23354569
  -Hartree energ DENC   =   -260295.50237377
  -exchange      EXHF   =         0.00000000
  -V(xc)+E(xc)   XCENC  =      2264.40493397
  PAW double counting   =     60133.64181033   -65311.89796598
  entropy T*S    EENTRO =        -0.00000000
  eigenvalues    EBANDS =     -3221.69329997
  atomic energy  EATOM  =     68155.84364823
  Solvation  Ediel_sol  =         0.00000000
  ---------------------------------------------------
  free energy    TOTEN  =       -99.19771586 eV

  energy without entropy =      -99.19771586  energy(sigma->0) =      -99.19771586


--------------------------------------------------------------------------------------------------------




--------------------------------------- Iteration      1(   4)  ---------------------------------------


     EDDAV:  cpu time   15.2160: real time   15.2203
       DOS:  cpu time    0.0000: real time    0.0003
    --------------------------------------------
      LOOP:  cpu time   15.2160: real time   15.2207

 eigenvalue-minimisations  :  1976
 total energy-change (2. order) :-0.8746197E+01  (-0.8463505E+01)
 number of electron     539.0000000 magnetization     147.0000000
 augmentation part      539.0000000 magnetization     147.0000000

 Free energy of the ion-electron system (eV)
  ---------------------------------------------------
  alpha Z        PSCENC =       140.77198564
  Ewald energy   TEWEN  =    198035.23354569
  -Hartree energ DENC   =   -260295.50237377
  -exchange      EXHF   =         0.00000000
  -V(xc)+E(xc)   XCENC  =      2264.40493397
  PAW double counting   =     60133.64181033   -65311.89796598
  entropy T*S    EENTRO =        -0.00000000
  eigenvalues    EBANDS =     -3230.43949681
  atomic energy  EATOM  =     68155.84364823
  Solvation  Ediel_sol  =         0.00000000
  ---------------------------------------------------
  free energy    TOTEN  =      -107.94391270 eV

  energy without entropy =     -107.94391270  energy(sigma->0) =     -107.94391270


--------------------------------------------------------------------------------------------------------




--------------------------------------- Iteration      1(   5)  ---------------------------------------


     EDDAV:  cpu time   15.3000: real time   15.3156
       DOS:  cpu time    0.0000: real time    0.0005
    CHARGE:  cpu time    0.2640: real time    0.2659
    MIXING:  cpu time    0.0120: real time    0.0100
    --------------------------------------------
      LOOP:  cpu time   15.5760: real time   15.5920

 eigenvalue-minimisations  :  1984
 total energy-change (2. order) :-0.2985901E+00  (-0.2976673E+00)
 number of electron     538.9999601 magnetization     134.3083806
 augmentation part      316.2280867 magnetization     128.4587277

 Broyden mixing:
  rms(total) = 0.12471E+02    rms(broyden)= 0.12469E+02
  rms(prec ) = 0.12614E+02
  weight for this iteration     100.00

 Free energy of the ion-electron system (eV)
  ---------------------------------------------------
  alpha Z        PSCENC =       140.77198564
  Ewald energy   TEWEN  =    198035.23354569
  -Hartree energ DENC   =   -260295.50237377
  -exchange      EXHF   =         0.00000000
  -V(xc)+E(xc)   XCENC  =      2264.40493397
  PAW double counting   =     60133.64181033   -65311.89796598
  entropy T*S    EENTRO =         0.00000000
  eigenvalues    EBANDS =     -3230.73808695
  atomic energy  EATOM  =     68155.84364823
  Solvation  Ediel_sol  =         0.00000000
  ---------------------------------------------------
  free energy    TOTEN  =      -108.24250284 eV

  energy without entropy =     -108.24250284  energy(sigma->0) =     -108.24250284


--------------------------------------------------------------------------------------------------------




--------------------------------------- Iteration      1(   6)  ---------------------------------------


    POTLOK:  cpu time    0.3720: real time    0.3830
    SETDIJ:  cpu time    0.0120: real time    0.0126
     EDDAV:  cpu time   13.7440: real time   13.7425
       DOS:  cpu time    0.0000: real time    0.0005
    CHARGE:  cpu time    0.2400: real time    0.2400
    MIXING:  cpu time    0.0080: real time    0.0100
    --------------------------------------------
      LOOP:  cpu time   14.3800: real time   14.3887

 eigenvalue-minimisations  :  1728
 total energy-change (2. order) : 0.3053842E+03  (-0.1934844E+03)
 number of electron     538.9999507 magnetization     125.2306659
 augmentation part      372.0380798 magnetization      84.1566068

 Broyden mixing:
  rms(total) = 0.63471E+01    rms(broyden)= 0.63441E+01
  rms(prec ) = 0.65650E+01
  weight for this iteration     100.00

 eigenvalues of (default mixing * dielectric matrix)
  average eigenvalue GAMMA=   0.9449
  0.9449

 Free energy of the ion-electron system (eV)
  ---------------------------------------------------
  alpha Z        PSCENC =       140.77198564
  Ewald energy   TEWEN  =    198035.23354569
  -Hartree energ DENC   =   -258801.49924185
  -exchange      EXHF   =         0.00000000
  -V(xc)+E(xc)   XCENC  =      2411.06674868
  PAW double counting   =     60308.65463147   -65211.87982138
  entropy T*S    EENTRO =         0.00000000
  eigenvalues    EBANDS =     -4841.04982442
  atomic energy  EATOM  =     68155.84364823
  Solvation  Ediel_sol  =         0.00000000
  ---------------------------------------------------
  free energy    TOTEN  =       197.14167205 eV

  energy without entropy =      197.14167205  energy(sigma->0) =      197.14167205


--------------------------------------------------------------------------------------------------------




--------------------------------------- Iteration      1(   7)  ---------------------------------------


    POTLOK:  cpu time    0.3760: real time    0.3819
    SETDIJ:  cpu time    0.0120: real time    0.0127
     EDDAV:  cpu time   14.5720: real time   14.5735
       DOS:  cpu time    0.0000: real time    0.0006
    CHARGE:  cpu time    0.2400: real time    0.2385
    MIXING:  cpu time    0.0080: real time    0.0103
    --------------------------------------------
      LOOP:  cpu time   15.2040: real time   15.2174

 eigenvalue-minimisations  :  1864
 total energy-change (2. order) : 0.2032932E+02  (-0.7489909E+02)
 number of electron     538.9999531 magnetization     114.8335335
 augmentation part      348.6870890 magnetization      69.5367499

 Broyden mixing:
  rms(total) = 0.32255E+01    rms(broyden)= 0.32241E+01
  rms(prec ) = 0.32676E+01
  weight for this iteration     100.00

 eigenvalues of (default mixing * dielectric matrix)
  average eigenvalue GAMMA=   0.8631
  1.0197  0.7065

 Free energy of the ion-electron system (eV)
  ---------------------------------------------------
  alpha Z        PSCENC =       140.77198564
  Ewald energy   TEWEN  =    198035.23354569
  -Hartree energ DENC   =   -259998.83304609
  -exchange      EXHF   =         0.00000000
  -V(xc)+E(xc)   XCENC  =      2450.55527866
  PAW double counting   =     62170.18062487   -67501.22452232
  entropy T*S    EENTRO =         0.00000000
  eigenvalues    EBANDS =     -3235.05651837
  atomic energy  EATOM  =     68155.84364823
  Solvation  Ediel_sol  =         0.00000000
  ---------------------------------------------------
  free energy    TOTEN  =       217.47099632 eV

  energy without entropy =      217.47099632  energy(sigma->0) =      217.47099632


--------------------------------------------------------------------------------------------------------




--------------------------------------- Iteration      1(   8)  ---------------------------------------


    POTLOK:  cpu time    0.3800: real time    0.3850
    SETDIJ:  cpu time    0.0160: real time    0.0125
     EDDAV:  cpu time   15.7680: real time   15.7723
       DOS:  cpu time    0.0040: real time    0.0005
    CHARGE:  cpu time    0.2400: real time    0.2400
    MIXING:  cpu time    0.0080: real time    0.0106
    --------------------------------------------
      LOOP:  cpu time   16.4160: real time   16.4209

 eigenvalue-minimisations  :  2064
 total energy-change (2. order) : 0.9725173E+01  (-0.1252650E+02)
 number of electron     538.9999546 magnetization     108.5708666
 augmentation part      344.0151906 magnetization      62.9268157

 Broyden mixing:
  rms(total) = 0.31632E+01    rms(broyden)= 0.31626E+01
  rms(prec ) = 0.32655E+01
  weight for this iteration     100.00

 eigenvalues of (default mixing * dielectric matrix)
  average eigenvalue GAMMA=   0.7666
  1.0893  0.7210  0.4895

 Free energy of the ion-electron system (eV)
  ---------------------------------------------------
  alpha Z        PSCENC =       140.77198564
  Ewald energy   TEWEN  =    198035.23354569
  -Hartree energ DENC   =   -260219.77021210
  -exchange      EXHF   =         0.00000000
  -V(xc)+E(xc)   XCENC  =      2463.24592695
  PAW double counting   =     63200.13936119   -68562.59286983
  entropy T*S    EENTRO =         0.00000000
  eigenvalues    EBANDS =     -2985.67521629
  atomic energy  EATOM  =     68155.84364823
  Solvation  Ediel_sol  =         0.00000000
  ---------------------------------------------------
  free energy    TOTEN  =       227.19616948 eV

  energy without entropy =      227.19616948  energy(sigma->0) =      227.19616948


--------------------------------------------------------------------------------------------------------




--------------------------------------- Iteration      1(   9)  ---------------------------------------


    POTLOK:  cpu time    0.3720: real time    0.3849
    SETDIJ:  cpu time    0.0120: real time    0.0127
     EDDAV:  cpu time   16.2840: real time   16.2851
       DOS:  cpu time    0.0040: real time    0.0005
    CHARGE:  cpu time    0.2360: real time    0.2390
    MIXING:  cpu time    0.0120: real time    0.0112
    --------------------------------------------
      LOOP:  cpu time   16.9200: real time   16.9334

 eigenvalue-minimisations  :  2144
 total energy-change (2. order) :-0.1563386E+02  (-0.4545103E+01)
 number of electron     538.9999535 magnetization      92.3758901
 augmentation part      345.3347120 magnetization      48.9561855

 Broyden mixing:
  rms(total) = 0.23359E+01    rms(broyden)= 0.23354E+01
  rms(prec ) = 0.23781E+01
  weight for this iteration     100.00

 eigenvalues of (default mixing * dielectric matrix)
  average eigenvalue GAMMA=   0.8866
  1.4312  0.8612  0.8612  0.3928

 Free energy of the ion-electron system (eV)
  ---------------------------------------------------
  alpha Z        PSCENC =       140.77198564
  Ewald energy   TEWEN  =    198035.23354569
  -Hartree energ DENC   =   -260155.48383379
  -exchange      EXHF   =         0.00000000
  -V(xc)+E(xc)   XCENC  =      2448.66621336
  PAW double counting   =     63494.95020756   -68839.55566364
  entropy T*S    EENTRO =         0.00000000
  eigenvalues    EBANDS =     -3068.86379425
  atomic energy  EATOM  =     68155.84364823
  Solvation  Ediel_sol  =         0.00000000
  ---------------------------------------------------
  free energy    TOTEN  =       211.56230880 eV

  energy without entropy =      211.56230880  energy(sigma->0) =      211.56230880


--------------------------------------------------------------------------------------------------------




--------------------------------------- Iteration      1(  10)  ---------------------------------------


    POTLOK:  cpu time    0.3840: real time    0.3862
    SETDIJ:  cpu time    0.0120: real time    0.0122
     EDDAV:  cpu time   18.9520: real time   18.9523
       DOS:  cpu time    0.0000: real time    0.0005
    CHARGE:  cpu time    0.2400: real time    0.2421
    MIXING:  cpu time    0.0120: real time    0.0117
    --------------------------------------------
      LOOP:  cpu time   19.6000: real time   19.6050

 eigenvalue-minimisations  :  2576
 total energy-change (2. order) :-0.6627920E+02  (-0.3372499E+01)
 number of electron     538.9999542 magnetization      72.4120322
 augmentation part      346.8973193 magnetization      33.5972499

 Broyden mixing:
  rms(total) = 0.18824E+01    rms(broyden)= 0.18818E+01
  rms(prec ) = 0.19170E+01
  weight for this iteration     100.00

 eigenvalues of (default mixing * dielectric matrix)
  average eigenvalue GAMMA=   1.1105
  2.8138  1.0712  0.7115  0.5841  0.3718

 Free energy of the ion-electron system (eV)
  ---------------------------------------------------
  alpha Z        PSCENC =       140.77198564
  Ewald energy   TEWEN  =    198035.23354569
  -Hartree energ DENC   =   -260199.51992034
  -exchange      EXHF   =         0.00000000
  -V(xc)+E(xc)   XCENC  =      2393.48154934
  PAW double counting   =     64030.35485439   -69334.66712257
  entropy T*S    EENTRO =         0.00000000
  eigenvalues    EBANDS =     -3076.21543190
  atomic energy  EATOM  =     68155.84364823
  Solvation  Ediel_sol  =         0.00000000
  ---------------------------------------------------
  free energy    TOTEN  =       145.28310849 eV

  energy without entropy =      145.28310849  energy(sigma->0) =      145.28310849


--------------------------------------------------------------------------------------------------------




--------------------------------------- Iteration      1(  11)  ---------------------------------------


    POTLOK:  cpu time    0.3840: real time    0.3855
    SETDIJ:  cpu time    0.0120: real time    0.0128
     EDDAV:  cpu time   15.7480: real time   15.7519
       DOS:  cpu time    0.0040: real time    0.0006
    CHARGE:  cpu time    0.2560: real time    0.2582
    MIXING:  cpu time    0.0120: real time    0.0122
    --------------------------------------------
      LOOP:  cpu time   16.4160: real time   16.4211

 eigenvalue-minimisations  :  2056
 total energy-change (2. order) :-0.4819748E+02  (-0.3970774E+01)
 number of electron     538.9999536 magnetization      63.6951994
 augmentation part      348.7137066 magnetization      31.1178443

 Broyden mixing:
  rms(total) = 0.14135E+01    rms(broyden)= 0.14130E+01
  rms(prec ) = 0.14408E+01
  weight for this iteration     100.00

 eigenvalues of (default mixing * dielectric matrix)
  average eigenvalue GAMMA=   1.1010
  3.2750  1.1620  0.6421  0.6421  0.5148  0.3698

 Free energy of the ion-electron system (eV)
  ---------------------------------------------------
  alpha Z        PSCENC =       140.77198564
  Ewald energy   TEWEN  =    198035.23354569
  -Hartree energ DENC   =   -260242.73832208
  -exchange      EXHF   =         0.00000000
  -V(xc)+E(xc)   XCENC  =      2356.99513530
  PAW double counting   =     64490.74832288   -69762.25972940
  entropy T*S    EENTRO =         0.00000000
  eigenvalues    EBANDS =     -3077.50896244
  atomic energy  EATOM  =     68155.84364823
  Solvation  Ediel_sol  =         0.00000000
  ---------------------------------------------------
  free energy    TOTEN  =        97.08562381 eV

  energy without entropy =       97.08562381  energy(sigma->0) =       97.08562381


--------------------------------------------------------------------------------------------------------




--------------------------------------- Iteration      1(  12)  ---------------------------------------


    POTLOK:  cpu time    0.3760: real time    0.3803
    SETDIJ:  cpu time    0.0160: real time    0.0123
     EDDAV:  cpu time   15.2240: real time   15.2253
       DOS:  cpu time    0.0000: real time    0.0006
    CHARGE:  cpu time    0.2560: real time    0.2556
    MIXING:  cpu time    0.0120: real time    0.0129
    --------------------------------------------
      LOOP:  cpu time   15.8840: real time   15.8870

 eigenvalue-minimisations  :  1976
 total energy-change (2. order) :-0.2642729E+02  (-0.2362180E+01)
 number of electron     538.9999539 magnetization      51.6698166
 augmentation part      347.8626100 magnetization      24.2777568

 Broyden mixing:
  rms(total) = 0.11880E+01    rms(broyden)= 0.11876E+01
  rms(prec ) = 0.12085E+01
  weight for this iteration     100.00

 eigenvalues of (default mixing * dielectric matrix)
  average eigenvalue GAMMA=   1.2278
  4.1563  1.2258  0.8569  0.8569  0.6923  0.4031  0.4031

 Free energy of the ion-electron system (eV)
  ---------------------------------------------------
  alpha Z        PSCENC =       140.77198564
  Ewald energy   TEWEN  =    198035.23354569
  -Hartree energ DENC   =   -260289.11745096
  -exchange      EXHF   =         0.00000000
  -V(xc)+E(xc)   XCENC  =      2341.18119253
  PAW double counting   =     64450.63601296   -69727.17819875
  entropy T*S    EENTRO =        -0.00000000
  eigenvalues    EBANDS =     -3036.71240341
  atomic energy  EATOM  =     68155.84364823
  Solvation  Ediel_sol  =         0.00000000
  ---------------------------------------------------
  free energy    TOTEN  =        70.65833194 eV

  energy without entropy =       70.65833194  energy(sigma->0) =       70.65833194


--------------------------------------------------------------------------------------------------------




--------------------------------------- Iteration      1(  13)  ---------------------------------------


    POTLOK:  cpu time    0.3720: real time    0.3814
    SETDIJ:  cpu time    0.0120: real time    0.0123
     EDDAV:  cpu time   15.3320: real time   15.3340
       DOS:  cpu time    0.0040: real time    0.0005
    CHARGE:  cpu time    0.2560: real time    0.2570
    MIXING:  cpu time    0.0120: real time    0.0135
    --------------------------------------------
      LOOP:  cpu time   15.9880: real time   15.9986

 eigenvalue-minimisations  :  1992
 total energy-change (2. order) :-0.4322594E+02  (-0.2889292E+01)
 number of electron     538.9999542 magnetization      36.8165494
 augmentation part      345.5822412 magnetization      13.1899038

 Broyden mixing:
  rms(total) = 0.94466E+00    rms(broyden)= 0.94428E+00
  rms(prec ) = 0.97303E+00
  weight for this iteration     100.00

 eigenvalues of (default mixing * dielectric matrix)
  average eigenvalue GAMMA=   1.3281
  5.2148  1.6430  0.9509  0.7512  0.7512  0.3739  0.4886  0.4512

 Free energy of the ion-electron system (eV)
  ---------------------------------------------------
  alpha Z        PSCENC =       140.77198564
  Ewald energy   TEWEN  =    198035.23354569
  -Hartree energ DENC   =   -260370.18701071
  -exchange      EXHF   =         0.00000000
  -V(xc)+E(xc)   XCENC  =      2313.12511212
  PAW double counting   =     64394.44692508   -69683.54977744
  entropy T*S    EENTRO =         0.00000000
  eigenvalues    EBANDS =     -2958.25203264
  atomic energy  EATOM  =     68155.84364823
  Solvation  Ediel_sol  =         0.00000000
  ---------------------------------------------------
  free energy    TOTEN  =        27.43239597 eV

  energy without entropy =       27.43239597  energy(sigma->0) =       27.43239597


--------------------------------------------------------------------------------------------------------




--------------------------------------- Iteration      1(  14)  ---------------------------------------


    POTLOK:  cpu time    0.3720: real time    0.3840
    SETDIJ:  cpu time    0.0120: real time    0.0127
     EDDAV:  cpu time   17.2320: real time   17.2311
       DOS:  cpu time    0.0000: real time    0.0005
    CHARGE:  cpu time    0.2600: real time    0.2583
    MIXING:  cpu time    0.0120: real time    0.0142
    --------------------------------------------
      LOOP:  cpu time   17.8880: real time   17.9007

 eigenvalue-minimisations  :  2296
 total energy-change (2. order) :-0.5957089E+02  (-0.4840448E+01)
 number of electron     538.9999545 magnetization      28.4639025
 augmentation part      343.6122339 magnetization       9.5930011

 Broyden mixing:
  rms(total) = 0.78236E+00    rms(broyden)= 0.78182E+00
  rms(prec ) = 0.80548E+00
  weight for this iteration     100.00

 eigenvalues of (default mixing * dielectric matrix)
  average eigenvalue GAMMA=   1.3681
  5.7570  2.1964  0.9292  0.7864  0.7864  0.6457  0.4703  0.3709  0.3709

 Free energy of the ion-electron system (eV)
  ---------------------------------------------------
  alpha Z        PSCENC =       140.77198564
  Ewald energy   TEWEN  =    198035.23354569
  -Hartree energ DENC   =   -260392.44772604
  -exchange      EXHF   =         0.00000000
  -V(xc)+E(xc)   XCENC  =      2269.99585784
  PAW double counting   =     64153.65727832   -69443.33014007
  entropy T*S    EENTRO =         0.00000000
  eigenvalues    EBANDS =     -2951.86294050
  atomic energy  EATOM  =     68155.84364823
  Solvation  Ediel_sol  =         0.00000000
  ---------------------------------------------------
  free energy    TOTEN  =       -32.13849090 eV

  energy without entropy =      -32.13849090  energy(sigma->0) =      -32.13849090


--------------------------------------------------------------------------------------------------------




--------------------------------------- Iteration      1(  15)  ---------------------------------------


    POTLOK:  cpu time    0.3720: real time    0.3861
    SETDIJ:  cpu time    0.0160: real time    0.0124
     EDDAV:  cpu time   14.5280: real time   14.5296
       DOS:  cpu time    0.0000: real time    0.0007
    CHARGE:  cpu time    0.2560: real time    0.2561
    MIXING:  cpu time    0.0160: real time    0.0152
    --------------------------------------------
      LOOP:  cpu time   15.1880: real time   15.2000

 eigenvalue-minimisations  :  1864
 total energy-change (2. order) :-0.4763064E+02  (-0.4488815E+01)
 number of electron     538.9999546 magnetization      22.9768448
 augmentation part      343.9891727 magnetization      10.5068661

 Broyden mixing:
  rms(total) = 0.58103E+00    rms(broyden)= 0.58016E+00
  rms(prec ) = 0.59691E+00
  weight for this iteration     100.00

 eigenvalues of (default mixing * dielectric matrix)
  average eigenvalue GAMMA=   1.4175
  6.4123  2.6519  0.8456  0.8456  0.9039  0.6630  0.6630  0.4279  0.3807  0.3807

 Free energy of the ion-electron system (eV)
  ---------------------------------------------------
  alpha Z        PSCENC =       140.77198564
  Ewald energy   TEWEN  =    198035.23354569
  -Hartree energ DENC   =   -260300.61551679
  -exchange      EXHF   =         0.00000000
  -V(xc)+E(xc)   XCENC  =      2232.46343500
  PAW double counting   =     63783.88216168   -69052.78715766
  entropy T*S    EENTRO =         0.00000000
  eigenvalues    EBANDS =     -3074.56123329
  atomic energy  EATOM  =     68155.84364823
  Solvation  Ediel_sol  =         0.00000000
  ---------------------------------------------------
  free energy    TOTEN  =       -79.76913152 eV

  energy without entropy =      -79.76913152  energy(sigma->0) =      -79.76913152


--------------------------------------------------------------------------------------------------------




--------------------------------------- Iteration      1(  16)  ---------------------------------------


    POTLOK:  cpu time    0.3800: real time    0.3861
    SETDIJ:  cpu time    0.0120: real time    0.0124
     EDDAV:  cpu time   16.0440: real time   16.0439
       DOS:  cpu time    0.0000: real time    0.0005
    CHARGE:  cpu time    0.2560: real time    0.2567
    MIXING:  cpu time    0.0160: real time    0.0155
    --------------------------------------------
      LOOP:  cpu time   16.7080: real time   16.7151

 eigenvalue-minimisations  :  2104
 total energy-change (2. order) :-0.2027073E+02  (-0.1694949E+01)
 number of electron     538.9999539 magnetization      17.9958181
 augmentation part      344.1949917 magnetization       9.0785924

 Broyden mixing:
  rms(total) = 0.47895E+00    rms(broyden)= 0.47840E+00
  rms(prec ) = 0.49508E+00
  weight for this iteration     100.00

 eigenvalues of (default mixing * dielectric matrix)
  average eigenvalue GAMMA=   1.4455
  7.0713  3.0068  0.9200  0.9200  0.8962  0.7147  0.7147  0.4790  0.4061  0.4061
  0.3658

 Free energy of the ion-electron system (eV)
  ---------------------------------------------------
  alpha Z        PSCENC =       140.77198564
  Ewald energy   TEWEN  =    198035.23354569
  -Hartree energ DENC   =   -260263.84284803
  -exchange      EXHF   =         0.00000000
  -V(xc)+E(xc)   XCENC  =      2216.63153532
  PAW double counting   =     63682.49960214   -68941.12794791
  entropy T*S    EENTRO =         0.00000000
  eigenvalues    EBANDS =     -3126.04938181
  atomic energy  EATOM  =     68155.84364823
  Solvation  Ediel_sol  =         0.00000000
  ---------------------------------------------------
  free energy    TOTEN  =      -100.03986074 eV

  energy without entropy =     -100.03986074  energy(sigma->0) =     -100.03986074


--------------------------------------------------------------------------------------------------------




--------------------------------------- Iteration      1(  17)  ---------------------------------------


    POTLOK:  cpu time    0.3800: real time    0.3833
    SETDIJ:  cpu time    0.0120: real time    0.0120
     EDDAV:  cpu time   15.6520: real time   15.6552
       DOS:  cpu time    0.0000: real time    0.0005
    CHARGE:  cpu time    0.2600: real time    0.2582
    MIXING:  cpu time    0.0160: real time    0.0162
    --------------------------------------------
      LOOP:  cpu time   16.3200: real time   16.3254

 eigenvalue-minimisations  :  2040
 total energy-change (2. order) :-0.1379154E+02  (-0.7830396E+00)
 number of electron     538.9999535 magnetization      12.9345039
 augmentation part      344.5862332 magnetization       8.5008289

 Broyden mixing:
  rms(total) = 0.39290E+00    rms(broyden)= 0.39207E+00
  rms(prec ) = 0.40502E+00
  weight for this iteration     100.00

 eigenvalues of (default mixing * dielectric matrix)
  average eigenvalue GAMMA=   1.4641
  7.8780  3.0670  0.9977  0.9977  1.0671  0.7116  0.7116  0.5784  0.4442  0.3838
  0.3838  0.3485

 Free energy of the ion-electron system (eV)
  ---------------------------------------------------
  alpha Z        PSCENC =       140.77198564
  Ewald energy   TEWEN  =    198035.23354569
  -Hartree energ DENC   =   -260229.43022790
  -exchange      EXHF   =         0.00000000
  -V(xc)+E(xc)   XCENC  =      2204.97212529
  PAW double counting   =     63609.58437555   -68863.13076578
  entropy T*S    EENTRO =         0.00000000
  eigenvalues    EBANDS =     -3167.67608548
  atomic energy  EATOM  =     68155.84364823
  Solvation  Ediel_sol  =         0.00000000
  ---------------------------------------------------
  free energy    TOTEN  =      -113.83139876 eV

  energy without entropy =     -113.83139876  energy(sigma->0) =     -113.83139876


--------------------------------------------------------------------------------------------------------




--------------------------------------- Iteration      1(  18)  ---------------------------------------


    POTLOK:  cpu time    0.3720: real time    0.3866
    SETDIJ:  cpu time    0.0120: real time    0.0124
     EDDAV:  cpu time   15.4600: real time   15.4592
       DOS:  cpu time    0.0000: real time    0.0005
    CHARGE:  cpu time    0.2600: real time    0.2589
    MIXING:  cpu time    0.0160: real time    0.0171
    --------------------------------------------
      LOOP:  cpu time   16.1200: real time   16.1347

 eigenvalue-minimisations  :  2016
 total energy-change (2. order) :-0.7990906E+01  (-0.3208265E+00)
 number of electron     538.9999535 magnetization       9.5066411
 augmentation part      344.6652231 magnetization       5.9890233

 Broyden mixing:
  rms(total) = 0.28930E+00    rms(broyden)= 0.28919E+00
  rms(prec ) = 0.30031E+00
  weight for this iteration     100.00

 eigenvalues of (default mixing * dielectric matrix)
  average eigenvalue GAMMA=   1.5284
  8.8062  3.2926  1.1198  1.1198  0.9965  0.9965  0.7045  0.7045  0.5623  0.4638
  0.3786  0.3786  0.3452

 Free energy of the ion-electron system (eV)
  ---------------------------------------------------
  alpha Z        PSCENC =       140.77198564
  Ewald energy   TEWEN  =    198035.23354569
  -Hartree energ DENC   =   -260215.40387444
  -exchange      EXHF   =         0.00000000
  -V(xc)+E(xc)   XCENC  =      2198.14498099
  PAW double counting   =     63614.82343802   -68869.98974824
  entropy T*S    EENTRO =        -0.00000000
  eigenvalues    EBANDS =     -3181.24628044
  atomic energy  EATOM  =     68155.84364823
  Solvation  Ediel_sol  =         0.00000000
  ---------------------------------------------------
  free energy    TOTEN  =      -121.82230454 eV

  energy without entropy =     -121.82230454  energy(sigma->0) =     -121.82230454


--------------------------------------------------------------------------------------------------------




--------------------------------------- Iteration      1(  19)  ---------------------------------------


    POTLOK:  cpu time    0.3760: real time    0.3866
    SETDIJ:  cpu time    0.0120: real time    0.0122
     EDDAV:  cpu time   15.4160: real time   15.4183
       DOS:  cpu time    0.0000: real time    0.0005
    CHARGE:  cpu time    0.2560: real time    0.2565
    MIXING:  cpu time    0.0200: real time    0.0179
    --------------------------------------------
      LOOP:  cpu time   16.0800: real time   16.0921

 eigenvalue-minimisations  :  2008
 total energy-change (2. order) :-0.9033788E+01  (-0.2308062E+00)
 number of electron     538.9999533 magnetization       6.6656687
 augmentation part      344.8468175 magnetization       5.3399324

 Broyden mixing:
  rms(total) = 0.24393E+00    rms(broyden)= 0.24335E+00
  rms(prec ) = 0.25541E+00
  weight for this iteration     100.00

 eigenvalues of (default mixing * dielectric matrix)
  average eigenvalue GAMMA=   1.5210
  9.4472  3.3251  1.4761  1.0533  0.9674  0.9674  0.7526  0.7526  0.5552  0.4941
  0.3919  0.3919  0.3772  0.3416

 Free energy of the ion-electron system (eV)
  ---------------------------------------------------
  alpha Z        PSCENC =       140.77198564
  Ewald energy   TEWEN  =    198035.23354569
  -Hartree energ DENC   =   -260174.66908135
  -exchange      EXHF   =         0.00000000
  -V(xc)+E(xc)   XCENC  =      2189.56846299
  PAW double counting   =     63586.90959758   -68843.58811256
  entropy T*S    EENTRO =         0.00000000
  eigenvalues    EBANDS =     -3220.92613832
  atomic energy  EATOM  =     68155.84364823
  Solvation  Ediel_sol  =         0.00000000
  ---------------------------------------------------
  free energy    TOTEN  =      -130.85609210 eV

  energy without entropy =     -130.85609210  energy(sigma->0) =     -130.85609210


--------------------------------------------------------------------------------------------------------




--------------------------------------- Iteration      1(  20)  ---------------------------------------


    POTLOK:  cpu time    0.3720: real time    0.3835
    SETDIJ:  cpu time    0.0120: real time    0.0123
     EDDAV:  cpu time   15.0040: real time   15.0041
       DOS:  cpu time    0.0000: real time    0.0005
    CHARGE:  cpu time    0.2560: real time    0.2575
    MIXING:  cpu time    0.0200: real time    0.0190
    --------------------------------------------
      LOOP:  cpu time   15.6640: real time   15.6769

 eigenvalue-minimisations  :  1944
 total energy-change (2. order) :-0.5536031E+01  (-0.9198774E-01)
 number of electron     538.9999533 magnetization       4.9204755
 augmentation part      344.9911815 magnetization       3.9050167

 Broyden mixing:
  rms(total) = 0.15568E+00    rms(broyden)= 0.15559E+00
  rms(prec ) = 0.16323E+00
  weight for this iteration     100.00

 eigenvalues of (default mixing * dielectric matrix)
  average eigenvalue GAMMA=   1.5550
 10.0111  3.4366  1.8692  1.0807  1.0807  0.8710  0.8710  0.7269  0.7269  0.6872
  0.4659  0.4008  0.3761  0.3761  0.3448

 Free energy of the ion-electron system (eV)
  ---------------------------------------------------
  alpha Z        PSCENC =       140.77198564
  Ewald energy   TEWEN  =    198035.23354569
  -Hartree energ DENC   =   -260144.65574615
  -exchange      EXHF   =         0.00000000
  -V(xc)+E(xc)   XCENC  =      2183.94375218
  PAW double counting   =     63586.23704643   -68844.27094101
  entropy T*S    EENTRO =         0.00000000
  eigenvalues    EBANDS =     -3249.49541400
  atomic energy  EATOM  =     68155.84364823
  Solvation  Ediel_sol  =         0.00000000
  ---------------------------------------------------
  free energy    TOTEN  =      -136.39212300 eV

  energy without entropy =     -136.39212300  energy(sigma->0) =     -136.39212300


--------------------------------------------------------------------------------------------------------




--------------------------------------- Iteration      1(  21)  ---------------------------------------


    POTLOK:  cpu time    0.3800: real time    0.3831
    SETDIJ:  cpu time    0.0120: real time    0.0124
     EDDAV:  cpu time   14.8760: real time   14.8764
       DOS:  cpu time    0.0000: real time    0.0005
    CHARGE:  cpu time    0.2520: real time    0.2522
    MIXING:  cpu time    0.0200: real time    0.0201
    --------------------------------------------
      LOOP:  cpu time   15.5400: real time   15.5448

 eigenvalue-minimisations  :  1920
 total energy-change (2. order) :-0.3845162E+01  (-0.4873266E-01)
 number of electron     538.9999533 magnetization       3.7871722
 augmentation part      345.0291957 magnetization       2.8499586

 Broyden mixing:
  rms(total) = 0.12087E+00    rms(broyden)= 0.12084E+00
  rms(prec ) = 0.12869E+00
  weight for this iteration     100.00

 eigenvalues of (default mixing * dielectric matrix)
  average eigenvalue GAMMA=   1.5637
 10.4403  3.6758  2.0281  1.1313  1.1313  0.9767  0.8627  0.8627  0.7021  0.7021
  0.5559  0.4540  0.4004  0.3763  0.3763  0.3439

 Free energy of the ion-electron system (eV)
  ---------------------------------------------------
  alpha Z        PSCENC =       140.77198564
  Ewald energy   TEWEN  =    198035.23354569
  -Hartree energ DENC   =   -260120.93409476
  -exchange      EXHF   =         0.00000000
  -V(xc)+E(xc)   XCENC  =      2180.08223162
  PAW double counting   =     63595.99459118   -68855.90050696
  entropy T*S    EENTRO =         0.00000000
  eigenvalues    EBANDS =     -3271.32868549
  atomic energy  EATOM  =     68155.84364823
  Solvation  Ediel_sol  =         0.00000000
  ---------------------------------------------------
  free energy    TOTEN  =      -140.23728486 eV

  energy without entropy =     -140.23728486  energy(sigma->0) =     -140.23728486


--------------------------------------------------------------------------------------------------------




--------------------------------------- Iteration      1(  22)  ---------------------------------------


    POTLOK:  cpu time    0.3720: real time    0.3868
    SETDIJ:  cpu time    0.0160: real time    0.0127
     EDDAV:  cpu time   15.0000: real time   15.0022
       DOS:  cpu time    0.0000: real time    0.0006
    CHARGE:  cpu time    0.2520: real time    0.2528
    MIXING:  cpu time    0.0240: real time    0.0216
    --------------------------------------------
      LOOP:  cpu time   15.6640: real time   15.6765

 eigenvalue-minimisations  :  1936
 total energy-change (2. order) :-0.2633075E+01  (-0.2413686E-01)
 number of electron     538.9999533 magnetization       2.8536941
 augmentation part      344.9879190 magnetization       1.9392097

 Broyden mixing:
  rms(total) = 0.73675E-01    rms(broyden)= 0.73650E-01
  rms(prec ) = 0.79670E-01
  weight for this iteration     100.00

 eigenvalues of (default mixing * dielectric matrix)
  average eigenvalue GAMMA=   1.6021
 10.9120  4.0171  2.4520  1.3422  1.0506  1.0506  0.9678  0.9678  0.7204  0.7204
  0.6108  0.4955  0.4485  0.3827  0.3827  0.3693  0.3460

 Free energy of the ion-electron system (eV)
  ---------------------------------------------------
  alpha Z        PSCENC =       140.77198564
  Ewald energy   TEWEN  =    198035.23354569
  -Hartree energ DENC   =   -260096.82871888
  -exchange      EXHF   =         0.00000000
  -V(xc)+E(xc)   XCENC  =      2177.45178738
  PAW double counting   =     63593.37839199   -68855.09175357
  entropy T*S    EENTRO =         0.00000000
  eigenvalues    EBANDS =     -3293.62924640
  atomic energy  EATOM  =     68155.84364823
  Solvation  Ediel_sol  =         0.00000000
  ---------------------------------------------------
  free energy    TOTEN  =      -142.87035992 eV

  energy without entropy =     -142.87035992  energy(sigma->0) =     -142.87035992


--------------------------------------------------------------------------------------------------------




--------------------------------------- Iteration      1(  23)  ---------------------------------------


    POTLOK:  cpu time    0.3760: real time    0.3822
    SETDIJ:  cpu time    0.0160: real time    0.0128
     EDDAV:  cpu time   15.9120: real time   15.9157
       DOS:  cpu time    0.0000: real time    0.0006
    CHARGE:  cpu time    0.2520: real time    0.2509
    MIXING:  cpu time    0.0240: real time    0.0229
    --------------------------------------------
      LOOP:  cpu time   16.5800: real time   16.5851

 eigenvalue-minimisations  :  2088
 total energy-change (2. order) :-0.1493531E+01  (-0.9513335E-02)
 number of electron     538.9999534 magnetization       2.0762820
 augmentation part      344.9265881 magnetization       1.1907647

 Broyden mixing:
  rms(total) = 0.44551E-01    rms(broyden)= 0.44532E-01
  rms(prec ) = 0.49498E-01
  weight for this iteration     100.00

 eigenvalues of (default mixing * dielectric matrix)
  average eigenvalue GAMMA=   1.6273
 11.3367  4.4507  2.7040  1.1899  1.1899  1.0416  1.0416  0.9125  0.9125  0.7332
  0.7332  0.6775  0.4391  0.4391  0.3871  0.3871  0.3699  0.3449

 Free energy of the ion-electron system (eV)
  ---------------------------------------------------
  alpha Z        PSCENC =       140.77198564
  Ewald energy   TEWEN  =    198035.23354569
  -Hartree energ DENC   =   -260073.82798322
  -exchange      EXHF   =         0.00000000
  -V(xc)+E(xc)   XCENC  =      2175.97100114
  PAW double counting   =     63591.47652248   -68854.76758096
  entropy T*S    EENTRO =         0.00000000
  eigenvalues    EBANDS =     -3315.06503015
  atomic energy  EATOM  =     68155.84364823
  Solvation  Ediel_sol  =         0.00000000
  ---------------------------------------------------
  free energy    TOTEN  =      -144.36389116 eV

  energy without entropy =     -144.36389116  energy(sigma->0) =     -144.36389116


--------------------------------------------------------------------------------------------------------




--------------------------------------- Iteration      1(  24)  ---------------------------------------


    POTLOK:  cpu time    0.3720: real time    0.3834
    SETDIJ:  cpu time    0.0120: real time    0.0124
     EDDAV:  cpu time   13.8000: real time   13.7986
       DOS:  cpu time    0.0000: real time    0.0005
    CHARGE:  cpu time    0.2520: real time    0.2529
    MIXING:  cpu time    0.0240: real time    0.0242
    --------------------------------------------
      LOOP:  cpu time   14.4600: real time   14.4721

 eigenvalue-minimisations  :  1744
 total energy-change (2. order) :-0.8821522E+00  (-0.3532550E-02)
 number of electron     538.9999534 magnetization       1.7682175
 augmentation part      344.8866240 magnetization       0.9071991

 Broyden mixing:
  rms(total) = 0.35420E-01    rms(broyden)= 0.35410E-01
  rms(prec ) = 0.39586E-01
  weight for this iteration     100.00

 eigenvalues of (default mixing * dielectric matrix)
  average eigenvalue GAMMA=   1.6143
 11.4532  4.6636  2.7521  1.4434  1.4434  1.0729  1.0729  0.9120  0.9120  0.7044
  0.7044  0.6633  0.5054  0.4712  0.4008  0.4008  0.3761  0.3761  0.3439

 Free energy of the ion-electron system (eV)
  ---------------------------------------------------
  alpha Z        PSCENC =       140.77198564
  Ewald energy   TEWEN  =    198035.23354569
  -Hartree energ DENC   =   -260056.94823197
  -exchange      EXHF   =         0.00000000
  -V(xc)+E(xc)   XCENC  =      2175.06149792
  PAW double counting   =     63596.00752337   -68860.06317583
  entropy T*S    EENTRO =         0.00000000
  eigenvalues    EBANDS =     -3331.15283644
  atomic energy  EATOM  =     68155.84364823
  Solvation  Ediel_sol  =         0.00000000
  ---------------------------------------------------
  free energy    TOTEN  =      -145.24604340 eV

  energy without entropy =     -145.24604340  energy(sigma->0) =     -145.24604340


--------------------------------------------------------------------------------------------------------




--------------------------------------- Iteration      1(  25)  ---------------------------------------


    POTLOK:  cpu time    0.3720: real time    0.3853
    SETDIJ:  cpu time    0.0120: real time    0.0126
     EDDAV:  cpu time   13.6320: real time   13.6325
       DOS:  cpu time    0.0000: real time    0.0006
    CHARGE:  cpu time    0.2520: real time    0.2499
    MIXING:  cpu time    0.0240: real time    0.0258
    --------------------------------------------
      LOOP:  cpu time   14.2920: real time   14.3066

 eigenvalue-minimisations  :  1720
 total energy-change (2. order) :-0.4456916E+00  (-0.1592298E-02)
 number of electron     538.9999534 magnetization       1.6546214
 augmentation part      344.8923136 magnetization       0.7921085

 Broyden mixing:
  rms(total) = 0.18453E-01    rms(broyden)= 0.18445E-01
  rms(prec ) = 0.21689E-01
  weight for this iteration     100.00

 eigenvalues of (default mixing * dielectric matrix)
  average eigenvalue GAMMA=   1.6230
 11.5207  4.9812  2.6262  2.3485  1.1598  1.0771  1.0771  0.9425  0.9425  0.8350
  0.7527  0.7527  0.6330  0.4739  0.4375  0.3441  0.3687  0.3879  0.3879  0.4115

 Free energy of the ion-electron system (eV)
  ---------------------------------------------------
  alpha Z        PSCENC =       140.77198564
  Ewald energy   TEWEN  =    198035.23354569
  -Hartree energ DENC   =   -260045.54543728
  -exchange      EXHF   =         0.00000000
  -V(xc)+E(xc)   XCENC  =      2174.54502147
  PAW double counting   =     63599.39614637   -68863.27434635
  entropy T*S    EENTRO =         0.00000000
  eigenvalues    EBANDS =     -3342.66229874
  atomic energy  EATOM  =     68155.84364823
  Solvation  Ediel_sol  =         0.00000000
  ---------------------------------------------------
  free energy    TOTEN  =      -145.69173497 eV

  energy without entropy =     -145.69173497  energy(sigma->0) =     -145.69173497


--------------------------------------------------------------------------------------------------------




--------------------------------------- Iteration      1(  26)  ---------------------------------------


    POTLOK:  cpu time    0.3840: real time    0.3879
    SETDIJ:  cpu time    0.0120: real time    0.0124
     EDDAV:  cpu time   15.8800: real time   15.8810
       DOS:  cpu time    0.0000: real time    0.0005
    CHARGE:  cpu time    0.2520: real time    0.2499
    MIXING:  cpu time    0.0280: real time    0.0275
    --------------------------------------------
      LOOP:  cpu time   16.5560: real time   16.5592

 eigenvalue-minimisations  :  2088
 total energy-change (2. order) :-0.3849321E+00  (-0.8880444E-03)
 number of electron     538.9999534 magnetization       1.5383823
 augmentation part      344.9335023 magnetization       0.6623869

 Broyden mixing:
  rms(total) = 0.12995E-01    rms(broyden)= 0.12990E-01
  rms(prec ) = 0.15452E-01
  weight for this iteration     100.00

 eigenvalues of (default mixing * dielectric matrix)
  average eigenvalue GAMMA=   1.6102
 11.5778  5.1274  2.6343  2.6343  1.1400  1.1400  1.1648  1.1648  0.8837  0.8837
  0.7007  0.7007  0.6809  0.5834  0.4539  0.4539  0.3443  0.3702  0.3926  0.3926
  0.3899

 Free energy of the ion-electron system (eV)
  ---------------------------------------------------
  alpha Z        PSCENC =       140.77198564
  Ewald energy   TEWEN  =    198035.23354569
  -Hartree energ DENC   =   -260033.52155615
  -exchange      EXHF   =         0.00000000
  -V(xc)+E(xc)   XCENC  =      2174.05365275
  PAW double counting   =     63600.40905753   -68863.55240511
  entropy T*S    EENTRO =         0.00000000
  eigenvalues    EBANDS =     -3355.31459568
  atomic energy  EATOM  =     68155.84364823
  Solvation  Ediel_sol  =         0.00000000
  ---------------------------------------------------
  free energy    TOTEN  =      -146.07666709 eV

  energy without entropy =     -146.07666709  energy(sigma->0) =     -146.07666709


--------------------------------------------------------------------------------------------------------




--------------------------------------- Iteration      1(  27)  ---------------------------------------


    POTLOK:  cpu time    0.3800: real time    0.3854
    SETDIJ:  cpu time    0.0120: real time    0.0123
     EDDAV:  cpu time   13.9680: real time   13.9680
       DOS:  cpu time    0.0000: real time    0.0005
    CHARGE:  cpu time    0.2520: real time    0.2506
    MIXING:  cpu time    0.0280: real time    0.0307
    --------------------------------------------
      LOOP:  cpu time   14.6400: real time   14.6475

 eigenvalue-minimisations  :  1776
 total energy-change (2. order) :-0.1461869E+00  (-0.2488714E-03)
 number of electron     538.9999534 magnetization       1.3853998
 augmentation part      344.9408147 magnetization       0.5081975

 Broyden mixing:
  rms(total) = 0.10218E-01    rms(broyden)= 0.10216E-01
  rms(prec ) = 0.12147E-01
  weight for this iteration     100.00

 eigenvalues of (default mixing * dielectric matrix)
  average eigenvalue GAMMA=   1.5993
 11.6273  5.2107  3.0457  2.4130  1.5288  1.1908  1.1908  0.9278  0.9278  0.9876
  0.7361  0.7361  0.7363  0.6414  0.5208  0.4441  0.4441  0.3441  0.3906  0.3906
  0.3749  0.3749

 Free energy of the ion-electron system (eV)
  ---------------------------------------------------
  alpha Z        PSCENC =       140.77198564
  Ewald energy   TEWEN  =    198035.23354569
  -Hartree energ DENC   =   -260028.39668812
  -exchange      EXHF   =         0.00000000
  -V(xc)+E(xc)   XCENC  =      2173.88762419
  PAW double counting   =     63602.94849874   -68865.93571347
  entropy T*S    EENTRO =         0.00000000
  eigenvalues    EBANDS =     -3360.57575489
  atomic energy  EATOM  =     68155.84364823
  Solvation  Ediel_sol  =         0.00000000
  ---------------------------------------------------
  free energy    TOTEN  =      -146.22285399 eV

  energy without entropy =     -146.22285399  energy(sigma->0) =     -146.22285399


--------------------------------------------------------------------------------------------------------




--------------------------------------- Iteration      1(  28)  ---------------------------------------


    POTLOK:  cpu time    0.3800: real time    0.3824
    SETDIJ:  cpu time    0.0120: real time    0.0126
     EDDAV:  cpu time   16.1560: real time   16.1595
       DOS:  cpu time    0.0000: real time    0.0005
    CHARGE:  cpu time    0.2520: real time    0.2511
    MIXING:  cpu time    0.0320: real time    0.0319
    --------------------------------------------
      LOOP:  cpu time   16.8320: real time   16.8380

 eigenvalue-minimisations  :  2136
 total energy-change (2. order) :-0.1067280E+00  (-0.1785609E-03)
 number of electron     538.9999534 magnetization       1.2618065
 augmentation part      344.9273459 magnetization       0.3861616

 Broyden mixing:
  rms(total) = 0.62756E-02    rms(broyden)= 0.62739E-02
  rms(prec ) = 0.78407E-02
  weight for this iteration     100.00

 eigenvalues of (default mixing * dielectric matrix)
  average eigenvalue GAMMA=   1.5955
 11.6624  5.2309  3.2851  2.4511  1.7982  1.1699  1.1699  1.0193  1.0193  0.9330
  0.9330  0.7707  0.7049  0.7049  0.6200  0.4681  0.4402  0.4402  0.3441  0.3878
  0.3878  0.3696  0.3861

 Free energy of the ion-electron system (eV)
  ---------------------------------------------------
  alpha Z        PSCENC =       140.77198564
  Ewald energy   TEWEN  =    198035.23354569
  -Hartree energ DENC   =   -260023.88628406
  -exchange      EXHF   =         0.00000000
  -V(xc)+E(xc)   XCENC  =      2173.79587897
  PAW double counting   =     63607.56784034   -68870.71130486
  entropy T*S    EENTRO =         0.00000000
  eigenvalues    EBANDS =     -3364.94489190
  atomic energy  EATOM  =     68155.84364823
  Solvation  Ediel_sol  =         0.00000000
  ---------------------------------------------------
  free energy    TOTEN  =      -146.32958195 eV

[...]
    FORNL :  cpu time    7.7960: real time    7.7933
    STRESS:  cpu time   13.0480: real time   13.0501
    FORCOR:  cpu time    0.3760: real time    0.3751
    FORHAR:  cpu time    0.0720: real time    0.0698
    MIXING:  cpu time    0.0720: real time    0.0718
    OFIELD:  cpu time    0.0000: real time    0.0001

  FORCE on cell =-STRESS in cart. coord.  units (eV):
  Direction    XX          YY          ZZ          XY          YZ          ZX
  --------------------------------------------------------------------------------------
  Alpha Z   140.77199   140.77199   140.77199
  Ewald   69784.20279 67080.46812 61170.42812  9247.90081  9324.84068 -8140.54291
  Hartree 90254.30817 87812.49366 81939.90086  8697.06350  8694.52900 -7548.72153
  E(xc)   -3145.93526 -3146.39660 -3146.24405     0.67702     0.86691    -0.85455
  Local  ************************************-17943.03054-18012.18808 15679.57653
  n-local -1126.59300 -1126.69948 -1128.59919     3.63420     2.41907    -2.05933
  augment  4614.06194  4618.43556  4613.32890    -2.70315    -4.82061     5.88010
  Kinetic  4410.51254  4415.74742  4409.97700    -3.32742    -5.70803     6.80192
  Fock        0.00000     0.00000     0.00000     0.00000     0.00000     0.00000
  -------------------------------------------------------------------------------------
  Total     -13.73171   -14.32107   -13.78041     0.21442    -0.06105     0.08023
  in kB      -1.76379    -1.83949    -1.77005     0.02754    -0.00784     0.01030
  external pressure =       -1.79 kB  Pullay stress =        0.00 kB


 VOLUME and BASIS-vectors are now :
 -----------------------------------------------------------------------------
  energy-cutoff  :      295.45
  volume of cell :    12473.49
      direct lattice vectors                 reciprocal lattice vectors
    23.191529000  0.000000000  0.000000000     0.043119192  0.000000000  0.000000000
     0.000000000 23.191529000  0.000000000     0.000000000  0.043119192  0.000000000
     0.000000000  0.000000000 23.191529000     0.000000000  0.000000000  0.043119192

  length of vectors
    23.191529000 23.191529000 23.191529000     0.043119192  0.043119192  0.043119192


 FORCES acting on ions
    electron-ion (+dipol)            ewald-force                    non-local-force                 convergence-correction
 -----------------------------------------------------------------------------------------------
   0.111E+03 0.151E+04 0.188E+04   -.109E+03 -.150E+04 -.188E+04   -.135E+01 -.298E+01 -.546E+01   -.796E-04 -.102E-03 0.275E-04
   0.872E+03 0.270E+03 0.230E+04   -.870E+03 -.272E+03 -.229E+04   -.199E+01 0.126E+01 -.657E+01   -.848E-04 0.805E-04 0.317E-04
   0.406E+03 0.226E+04 0.578E+03   -.405E+03 -.226E+04 -.577E+03   -.760E+00 -.736E+01 -.866E+00   -.124E-04 0.127E-03 0.182E-04
   0.139E+04 0.131E+04 0.134E+04   -.139E+04 -.130E+04 -.133E+04   -.118E+01 -.296E+01 -.126E+01   -.520E-04 -.884E-04 0.120E-03
   0.177E+04 -.142E+03 0.146E+04   -.177E+04 0.142E+03 -.146E+04   -.188E+01 0.221E-01 -.237E+01   0.843E-04 0.959E-04 0.641E-04
   -.116E+04 0.101E+04 0.187E+04   0.116E+04 -.101E+04 -.186E+04   0.336E+01 -.185E+01 -.450E+01   -.446E-04 -.517E-04 0.352E-04
   0.229E+04 0.826E+03 0.586E+03   -.228E+04 -.824E+03 -.584E+03   -.760E+01 -.166E+01 -.245E+01   0.128E-03 -.104E-03 0.894E-04
   -.376E+03 -.228E+03 0.238E+04   0.375E+03 0.229E+03 -.238E+04   0.387E+00 -.505E+00 -.501E+01   -.200E-03 0.351E-04 -.195E-04
   -.992E+03 0.199E+04 0.791E+03   0.989E+03 -.199E+04 -.790E+03   0.244E+01 -.276E+01 -.184E+01   -.147E-03 0.634E-05 0.766E-05
   0.565E+02 0.673E+03 0.103E+04   -.563E+02 -.672E+03 -.103E+04   -.183E+00 -.761E+00 -.196E+01   -.935E-04 0.839E-04 0.321E-03
   0.808E+03 -.855E+03 0.186E+04   -.809E+03 0.854E+03 -.186E+04   0.171E+00 0.542E+00 -.499E+00   -.892E-04 0.271E-04 0.115E-03
   0.128E+04 0.207E+04 -.283E+03   -.127E+04 -.207E+04 0.281E+03   -.355E+01 -.450E+01 0.170E+01   -.452E-04 0.133E-03 0.808E-05
   -.138E+03 0.202E+04 -.378E+03   0.138E+03 -.202E+04 0.379E+03   0.290E+00 -.113E+01 -.860E+00   -.181E-03 0.986E-04 -.130E-03
   0.945E+03 0.773E+03 0.464E+02   -.943E+03 -.772E+03 -.462E+02   -.169E+01 -.972E+00 -.254E+00   0.947E-04 0.449E-04 -.157E-04
   0.182E+04 -.131E+04 0.101E+04   -.182E+04 0.131E+04 -.101E+04   -.455E+01 0.296E+01 -.159E+01   0.122E-03 -.542E-04 -.296E-04
   0.224E+04 -.376E+03 0.184E+03   -.224E+04 0.376E+03 -.185E+03   -.197E+01 0.540E+00 0.437E+00   0.163E-03 -.499E-04 0.384E-04
   0.583E+03 -.196E+04 0.138E+04   -.581E+03 0.195E+04 -.138E+04   -.119E+01 0.576E+01 -.424E+01   -.106E-03 -.117E-03 0.497E-04
   -.156E+04 0.107E+04 0.550E+03   0.156E+04 -.107E+04 -.550E+03   0.293E+00 -.969E+00 -.410E-01   -.226E-03 -.560E-04 -.328E-04
   0.198E+04 0.108E+04 -.876E+03   -.198E+04 -.108E+04 0.874E+03   -.275E+01 -.165E+01 0.154E+01   0.642E-04 -.208E-04 -.530E-04
   -.160E+04 0.915E+02 0.171E+04   0.159E+04 -.911E+02 -.171E+04   0.225E+01 -.381E+00 -.299E+01   -.581E-04 -.136E-05 0.498E-04
   -.540E+03 -.151E+04 0.188E+04   0.538E+03 0.150E+04 -.188E+04   0.206E+01 0.332E+01 -.478E+01   -.154E-03 0.116E-04 0.670E-04
   -.369E+03 0.606E+03 -.495E+03   0.368E+03 -.606E+03 0.494E+03   0.117E+01 -.769E-01 0.140E+01   -.343E-03 0.256E-03 -.248E-03
   -.147E+04 0.194E+04 -.406E+03   0.146E+04 -.194E+04 0.403E+03   0.552E+01 -.522E+01 0.256E+01   -.711E-04 -.338E-04 0.112E-04
   -.575E+03 -.321E+03 0.851E+03   0.575E+03 0.321E+03 -.850E+03   0.656E+00 0.100E-01 -.148E+01   -.360E-03 -.206E-04 0.186E-03
   0.590E+03 -.587E+03 0.284E+03   -.589E+03 0.586E+03 -.282E+03   -.597E+00 0.762E+00 -.161E+01   0.930E-04 -.241E-03 -.400E-04
   0.535E+03 0.177E+04 -.138E+04   -.535E+03 -.177E+04 0.138E+04   0.668E-01 -.226E+01 0.184E+01   -.141E-03 -.694E-04 -.836E-04
   -.199E+04 -.333E+03 0.102E+04   0.198E+04 0.332E+03 -.102E+04   0.876E+01 0.192E+00 -.637E+01   0.317E-04 0.993E-04 -.803E-04
   -.204E+04 0.373E+03 0.125E+03   0.204E+04 -.374E+03 -.124E+03   0.189E+01 0.102E+01 -.367E+00   -.364E-06 0.101E-04 -.704E-04
   -.134E+04 -.149E+04 0.951E+03   0.133E+04 0.149E+04 -.951E+03   0.279E+01 0.228E+01 -.580E+00   -.678E-04 0.130E-03 -.175E-04
   0.705E+03 0.443E+02 -.113E+04   -.704E+03 -.436E+02 0.113E+04   -.107E+01 -.788E+00 0.133E+01   -.356E-04 -.328E-04 -.172E-03
   0.214E+04 -.313E+03 -.115E+04   -.214E+04 0.311E+03 0.115E+04   -.584E+01 0.151E+01 0.264E+01   0.135E-03 -.742E-04 -.729E-04
   0.180E+04 -.134E+04 -.410E+03   -.180E+04 0.134E+04 0.409E+03   -.184E+01 0.547E+00 0.881E+00   -.391E-04 -.755E-04 -.287E-04
   0.869E+03 -.218E+04 0.230E+03   -.868E+03 0.218E+04 -.230E+03   -.928E+00 0.380E+01 -.304E+00   0.119E-04 -.521E-07 -.124E-03
   0.116E+04 0.724E+03 -.205E+04   -.116E+04 -.724E+03 0.204E+04   -.329E+01 -.439E+00 0.744E+01   -.845E-04 -.266E-04 -.587E-04
   -.369E+03 -.186E+04 0.515E+03   0.370E+03 0.186E+04 -.515E+03   -.142E+01 0.855E-01 0.616E-01   -.179E-03 -.305E-04 -.161E-03
   -.139E+03 0.873E+03 -.223E+04   0.139E+03 -.872E+03 0.223E+04   0.396E+00 -.970E+00 0.389E+01   -.515E-04 0.106E-04 0.559E-04
   -.834E+03 0.167E+04 -.155E+04   0.833E+03 -.166E+04 0.154E+04   0.127E+01 -.494E+01 0.268E+01   -.932E-04 -.991E-04 0.428E-04
   -.859E+03 -.455E+03 -.526E+03   0.858E+03 0.455E+03 0.525E+03   0.116E+01 0.721E-01 0.114E+01   -.287E-03 -.125E-03 -.187E-03
   -.191E+04 0.101E+04 -.895E+03   0.190E+04 -.101E+04 0.893E+03   0.174E+01 -.180E+01 0.139E+01   -.744E-04 -.249E-05 0.245E-04
   -.116E+04 0.352E+03 -.195E+04   0.116E+04 -.351E+03 0.195E+04   0.971E+00 -.501E+00 0.933E+00   -.302E-04 -.921E-04 0.124E-03
   0.118E+03 -.110E+04 -.983E+03   -.118E+03 0.109E+04 0.982E+03   0.596E-01 0.111E+01 0.561E+00   -.129E-03 -.267E-04 -.955E-04
   -.209E+04 -.956E+03 -.248E+03   0.209E+04 0.953E+03 0.245E+03   0.706E+01 0.320E+01 0.212E+01   -.127E-03 0.706E-04 0.134E-05
   0.112E+04 -.922E+03 -.195E+04   -.112E+04 0.921E+03 0.195E+04   -.302E+01 0.104E+01 0.561E+01   -.739E-04 0.644E-04 0.493E-04
   -.131E+03 -.516E+03 -.233E+04   0.132E+03 0.515E+03 0.233E+04   -.826E+00 0.135E+01 0.507E+01   -.964E-04 -.499E-04 0.103E-03
   -.136E+04 -.186E+04 -.482E+03   0.135E+04 0.186E+04 0.481E+03   0.262E+01 0.271E+01 0.848E+00   0.503E-04 -.139E-04 -.181E-04
   -.201E+04 -.233E+03 -.135E+04   0.200E+04 0.234E+03 0.134E+04   0.484E+01 -.249E+00 0.352E+01   0.764E-04 0.258E-04 0.615E-04
   0.789E+03 -.197E+04 -.122E+04   -.786E+03 0.196E+04 0.121E+04   -.271E+01 0.616E+01 0.547E+01   -.119E-03 -.356E-04 0.383E-05
   -.407E+03 -.229E+04 -.704E+03   0.407E+03 0.228E+04 0.703E+03   0.701E+00 0.584E+01 0.153E+01   -.193E-03 -.455E-04 -.180E-04
   -.995E+03 -.122E+04 -.186E+04   0.994E+03 0.122E+04 0.185E+04   0.147E+01 0.528E+01 0.431E+01   0.184E-04 0.140E-03 0.160E-03
 -----------------------------------------------------------------------------------------------
   -.219E+01 -.355E+01 -.257E+01   -.364E-11 0.250E-11 -.296E-11   0.221E+01 0.370E+01 0.267E+01   -.310E-02 -.188E-03 0.109E-03
 
 
 POSITION                                       TOTAL-FORCE (eV/Angst)
 -----------------------------------------------------------------------------------
     11.24844      8.25187      8.05141         0.009175      0.014040      0.027916
     10.26949     10.48169      7.63178        -0.034096     -0.037198     -0.039297
     10.53943      6.82877      9.95449        -0.001763      0.012848      0.010686
      9.26832      8.82374      9.35643        -0.005957     -0.026778     -0.008677
      8.89389     11.27438      9.53532         0.009442      0.002430     -0.018592
     13.30849      9.60115      8.16214        -0.047775      0.016371     -0.019061
      7.42472      9.57385     10.77728        -0.024394     -0.029045      0.003857
     12.41669     11.74070      7.65354        -0.013111      0.036975     -0.034763
     12.84262      7.76987      9.78845        -0.055679     -0.002405     -0.047495
     11.39960     10.20031      9.70423        -0.007256     -0.007719      0.017865
     10.58941     12.80442      8.75870         0.014608      0.004933     -0.013485
      8.98970      7.78660     11.69637         0.024638      0.013208     -0.016003
     11.48551      8.21224     11.74398         0.008230      0.005074      0.028468
      9.71311     10.05328     11.52382         0.018549     -0.012524     -0.004661
      8.83692     13.75646     10.26557        -0.025325     -0.009733     -0.008390
      7.96865     11.79737     11.73425        -0.000575      0.006514      0.015608
     10.67747     15.14368      9.31173        -0.008155      0.001045     -0.026332
     13.83480      9.95425     10.52173         0.000893      0.016570     -0.017862
      7.91035      9.70246     13.19600        -0.029610      0.022166     -0.003415
     14.64743     11.78443      8.71703        -0.003561     -0.005297      0.003895
     12.76400     14.01208      8.52869         0.001523     -0.025815      0.013873
     11.98273     10.60617     12.22119         0.017328     -0.000600      0.015002
     13.92804      8.01904     11.97911         0.011938      0.007790      0.034472
     12.76260     12.17420     10.13612         0.013550     -0.016722     -0.043398
     10.55972     12.44439     11.32301         0.011270      0.005988     -0.007893
     10.19162      8.96353     13.69907         0.004650      0.002612      0.010762
     16.70546     12.91842      9.48106         0.010957     -0.008771      0.023318
     15.32598     11.82836     11.16382         0.031853      0.007565     -0.018963
     14.62298     13.94290     10.13504        -0.001208     -0.007768      0.003778
      9.98167     11.54066     13.60846        -0.021024     -0.026558     -0.005611
      7.53011     11.98003     14.12563        -0.006741      0.020278      0.020639
      8.76366     13.79677     12.80043         0.012039     -0.032676      0.023921
     10.21012     15.36046     11.69502         0.004880      0.007584     -0.013741
      8.89865     10.35693     15.37626         0.008930      0.018236      0.003453
     12.40018     14.54388     10.98664        -0.022816      0.011089     -0.010751
     11.33402     10.30040     15.36731         0.013682      0.018102      0.016796
     12.73709      9.01405     13.89591         0.002085      0.027335      0.023731
     13.24837     12.65462     12.42806         0.031168      0.000497      0.027374
     14.56438     10.28399     12.85540         0.018708     -0.022182     -0.020138
     13.40169     11.42196     14.64394         0.014367     -0.017212     -0.008333
     11.21593     13.70649     13.36446        -0.013186     -0.003620      0.001866
     16.52828     13.85516     11.73426         0.017308     -0.010180      0.008905
      9.28467     13.39885     15.12156        -0.032292     -0.021821      0.012481
     11.53894     12.68977     15.55285         0.013756      0.042089      0.019176
     14.42503     14.82277     12.49285         0.003394      0.016607      0.021068
     15.35530     12.64504     13.58604         0.001783     -0.011252     -0.019040
      9.98129     15.59368     14.12867        -0.000828     -0.036542      0.034715
     12.27593     15.85010     13.12628         0.016958      0.017309     -0.001609
     13.40899     13.92626     14.55108         0.007689      0.017163     -0.016119
 -----------------------------------------------------------------------------------
    total drift:                                0.017223      0.150030      0.103317


--------------------------------------------------------------------------------------------------------



  FREE ENERGIE OF THE ION-ELECTRON SYSTEM (eV)
  ---------------------------------------------------
  free  energy   TOTEN  =      -146.45560562 eV

  energy  without entropy=     -146.45560562  energy(sigma->0) =     -146.45560562
 


--------------------------------------------------------------------------------------------------------


    POTLOK:  cpu time    0.3840: real time    0.3871


--------------------------------------------------------------------------------------------------------




--------------------------------------------------------------------------------------------------------


  
 reached required accuracy - stopping structural energy minimisation
     LOOP+:  cpu time  687.0120: real time  687.4925
    4ORBIT:  cpu time    0.0000: real time    0.0000
 


 total charge     
 
# of ion       s       p       d       tot
------------------------------------------
    1        0.466   0.230   9.237   9.932
    2        0.460   0.210   9.244   9.914
    3        0.489   0.173   9.241   9.903
    4        0.456   0.287   9.211   9.954
    5        0.444   0.309   9.204   9.957
    6        0.458   0.224   9.242   9.924
    7        0.463   0.202   9.252   9.917
    8        0.471   0.258   9.229   9.958
    9        0.469   0.253   9.220   9.941
   10        0.432   0.349   9.200   9.980
   11        0.463   0.305   9.201   9.969
   12        0.452   0.222   9.229   9.903
   13        0.432   0.321   9.205   9.957
   14        0.471   0.423   9.199  10.093
   15        0.452   0.239   9.222   9.912
   16        0.451   0.306   9.207   9.965
   17        0.481   0.185   9.242   9.908
   18        0.438   0.325   9.201   9.965
   19        0.451   0.260   9.220   9.931
   20        0.446   0.245   9.222   9.914
   21        0.464   0.231   9.229   9.924
   22        0.435   0.347   9.206   9.987
   23        0.488   0.179   9.242   9.910
   24        0.457   0.395   9.198  10.050
   25        0.422   0.355   9.194   9.970
   26        0.457   0.297   9.204   9.957
   27        0.484   0.138   9.277   9.899
   28        0.445   0.325   9.205   9.975
   29        0.454   0.306   9.208   9.968
   30        0.438   0.355   9.200   9.993
   31        0.478   0.202   9.241   9.920
   32        0.450   0.310   9.212   9.972
   33        0.466   0.276   9.209   9.952
   34        0.463   0.194   9.251   9.907
   35        0.434   0.331   9.193   9.958
   36        0.481   0.252   9.224   9.957
   37        0.456   0.251   9.226   9.932
   38        0.450   0.374   9.207  10.032
   39        0.466   0.270   9.210   9.946
   40        0.456   0.274   9.201   9.931
   41        0.450   0.391   9.192  10.034
   42        0.479   0.181   9.255   9.915
   43        0.452   0.223   9.248   9.923
   44        0.461   0.231   9.244   9.936
   45        0.456   0.253   9.227   9.936
   46        0.458   0.226   9.231   9.914
   47        0.472   0.172   9.256   9.901
   48        0.476   0.198   9.235   9.909
   49        0.457   0.239   9.230   9.926
--------------------------------------------------
tot         22.451  13.098 451.884 487.433
 


 magnetization (x)
 
# of ion       s       p       d       tot
------------------------------------------
    1       -0.001   0.002  -0.000   0.001
    2        0.000   0.003   0.011   0.014
    3       -0.001   0.001   0.003   0.003
    4        0.007   0.005   0.005   0.016
    5        0.001   0.009  -0.002   0.007
    6        0.003   0.001   0.001   0.005
    7        0.020   0.006   0.010   0.035
    8        0.002   0.004   0.002   0.007
    9        0.001   0.001   0.002   0.003
   10        0.002   0.002   0.007   0.011
   11        0.000   0.009  -0.000   0.009
   12        0.009   0.003  -0.001   0.012
   13        0.000   0.003   0.003   0.006
   14        0.004  -0.001   0.027   0.030
   15       -0.000   0.007   0.012   0.019
   16        0.000   0.005   0.001   0.006
   17        0.009   0.004   0.007   0.021
   18        0.001   0.001   0.004   0.006
   19        0.000   0.003   0.002   0.005
   20        0.000  -0.000   0.001   0.001
   21        0.001   0.008   0.001   0.011
   22        0.013   0.002   0.011   0.026
   23        0.001   0.006   0.004   0.011
   24       -0.000   0.001   0.010   0.010
   25        0.006   0.004   0.002   0.012
   26       -0.000   0.008  -0.003   0.006
   27       -0.001  -0.000  -0.000  -0.001
   28       -0.000   0.000   0.004   0.004
   29        0.007   0.004   0.001   0.011
   30        0.000   0.002   0.005   0.007
   31        0.001   0.001   0.001   0.003
   32       -0.000   0.001   0.004   0.005
   33        0.000   0.001   0.001   0.002
   34       -0.001   0.000   0.009   0.009
   35        0.010   0.002   0.006   0.018
   36        0.000   0.004   0.003   0.008
   37        0.000   0.008   0.006   0.013
   38        0.007   0.001   0.010   0.018
   39        0.017   0.009   0.005   0.031
   40        0.006   0.007   0.012   0.025
   41        0.001   0.001   0.003   0.004
   42        0.002   0.001   0.003   0.006
   43        0.002   0.000   0.000   0.002
   44        0.007   0.003   0.003   0.013
   45        0.000   0.005   0.002   0.008
   46       -0.000   0.006   0.002   0.007
   47       -0.000   0.000   0.002   0.001
   48       -0.000   0.001   0.006   0.006
   49        0.000   0.002   0.003   0.005
--------------------------------------------------
tot          0.139   0.150   0.212   0.501
 

 total amount of memory used by VASP MPI-rank0    86343. kBytes
=======================================================================

   base      :      30000. kBytes
   nonl-proj :       6069. kBytes
   fftplans  :       8240. kBytes
   grid      :      20882. kBytes
   one-center:         77. kBytes
   wavefun   :      21075. kBytes
 
  
  
 General timing and accounting informations for this job:
 ========================================================
  
                  Total CPU time used (sec):      696.640
                            User time (sec):      692.808
                          System time (sec):        3.832
                         Elapsed time (sec):      697.103
  
                   Maximum memory used (kb):       41516.
                   Average memory used (kb):           0.
  
                          Minor page faults:        18639
                          Major page faults:           26
                 Voluntary context switches:          520
