 vasp.5.4.1 05Feb16 (build Apr 11 2020 03:28:46) gamma-only                     
  
 executed on           IFC91_ompi date 2022.05.28  08:52:08
 running on   24 total cores
 distrk:  each k-point on   24 cores,    1 groups
 distr:  one band on NCORES_PER_BAND=   6 cores,    4 groups


--------------------------------------------------------------------------------------------------------


 INCAR:
 POTCAR:    PAW_PBE Cu 22Jun2005                  
 POTCAR:    PAW_PBE Cu 22Jun2005                  
   VRHFIN =Cu: d10 p1                                                           
   LEXCH  = PE                                                                  
   EATOM  =  1390.9808 eV,  102.2342 Ry                                         
                                                                                
   TITEL  = PAW_PBE Cu 22Jun2005                                                
   LULTRA =        F    use ultrasoft PP ?                                      
   IUNSCR =        1    unscreen: 0-lin 1-nonlin 2-no                           
   RPACOR =    2.000    partial core radius                                     
   POMASS =   63.546; ZVAL   =   11.000    mass and valenz                      
   RCORE  =    2.300    outmost cutoff radius                                   
   RWIGS  =    2.200; RWIGS  =    1.164    wigner-seitz radius (au A)           
   ENMAX  =  295.446; ENMIN  =  221.585 eV                                      
   ICORE  =        3    local potential                                         
   LCOR   =        T    correct aug charges                                     
   LPAW   =        T    paw PP                                                  
   EAUG   =  586.980                                                            
   DEXC   =    0.000                                                            
   RMAX   =    2.344    core radius for proj-oper                               
   RAUG   =    1.300    factor for augmentation sphere                          
   RDEP   =    2.302    radius for radial grids                                 
   RDEPT  =    1.771    core radius for aug-charge                              
                                                                                
   Atomic configuration                                                         
    9 entries                                                                   
     n  l   j            E        occ.                                          
     1  0  0.50     -8850.2468   2.0000                                         
     2  0  0.50     -1062.3498   2.0000                                         
     2  1  1.50      -916.8226   6.0000                                         
     3  0  0.50      -114.6929   2.0000                                         
     3  1  1.50       -72.1325   6.0000                                         
     3  2  2.50        -5.0394  10.0000                                         
     4  0  0.50        -4.6097   1.0000                                         
     4  1  0.50        -4.0817   0.0000                                         
     4  3  2.50        -1.3606   0.0000                                         
   Description                                                                  
     l       E           TYP  RCUT    TYP  RCUT                                 
     2     -5.0393973     23  2.200                                             
     2     10.8846608     23  2.200                                             
     0     -4.6097109     23  2.200                                             
     0      8.2520465     23  2.200                                             
     1     -2.7211652     23  2.200                                             
     1     21.7055443     23  2.200                                             
     3      2.7211652     23  2.300                                             
  local pseudopotential read in
  partial core-charges read in
  partial kinetic energy density read in
  atomic valenz-charges read in
  non local Contribution for L=           2  read in
    real space projection operators read in
  non local Contribution for L=           2  read in
    real space projection operators read in
  non local Contribution for L=           0  read in
    real space projection operators read in
  non local Contribution for L=           0  read in
    real space projection operators read in
  non local Contribution for L=           1  read in
    real space projection operators read in
  non local Contribution for L=           1  read in
    real space projection operators read in
    PAW grid and wavefunctions read in
 
   number of l-projection  operators is LMAX  =           6
   number of lm-projection operators is LMMAX =          18
 

 ----------------------------------------------------------------------------- 
|                                                                             |
|  ADVICE TO THIS USER RUNNING 'VASP/VAMP'   (HEAR YOUR MASTER'S VOICE ...):  |
|                                                                             |
|      You have a (more or less) 'large supercell' and for larger cells       |
|      it might be more efficient to use real space projection opertators     |
|      So try LREAL= Auto  in the INCAR   file.                               |
|      Mind: At the moment your POTCAR file does not contain real space       |
|       projectors, and has to be modified,  BUT if you                       |
|      want to do an extremely  accurate calculation you might also keep the  |
|      reciprocal projection scheme          (i.e. LREAL=.FALSE.)             |
|                                                                             |
 ----------------------------------------------------------------------------- 

  PAW_PBE Cu 22Jun2005                  :
 energy of atom  1       EATOM=-1390.9808
 kinetic energy error for atom=    0.0452 (will be added to EATOM!!)
 
 
 POSCAR: unknown system                          
  positions in direct lattice
  velocities in cartesian coordinates
 exchange correlation table for  LEXCH =        8
   RHO(1)=    0.500       N(1)  =     2000
   RHO(2)=  100.500       N(2)  =     4000
 


--------------------------------------------------------------------------------------------------------


 ion  position               nearest neighbor table
   1  0.468  0.467  0.323-  10 2.39   5 2.51   2 2.52   6 2.52   4 2.53   3 2.54
   2  0.480  0.552  0.359-  16 2.44  10 2.48   1 2.52   3 2.54   9 2.56   7 2.58   4 2.59
   3  0.554  0.494  0.353-  17 2.48  10 2.50   5 2.51   8 2.54   1 2.54   2 2.54   7 2.56  12 2.59

   4  0.399  0.502  0.377-  18 2.50  10 2.52   6 2.53   9 2.53   1 2.53  11 2.54   2 2.59  13 2.60

   5  0.525  0.406  0.366-  15 2.44  10 2.48  14 2.49   1 2.51   3 2.51  12 2.51  19 2.60   6 2.76

   6  0.423  0.411  0.384-  10 2.45  15 2.47  20 2.48   1 2.52   4 2.53  13 2.54   5 2.76
   7  0.566  0.578  0.395-  16 2.42  17 2.48  21 2.51   8 2.51   3 2.56   2 2.58  34 2.72
   8  0.637  0.518  0.392-  17 2.39  24 2.49  21 2.51   7 2.51  12 2.51   3 2.54
   9  0.412  0.587  0.417-  16 2.46  18 2.47  11 2.50  22 2.50   4 2.53   2 2.56  23 2.60
  10  0.483  0.475  0.411-   1 2.39  26 2.41   6 2.45   2 2.48   5 2.48   3 2.50   4 2.52  17 2.53
                            18 2.55  16 2.59  19 2.65  20 2.69
  11  0.337  0.537  0.438-  18 2.39   9 2.50  38 2.50  23 2.52  13 2.54   4 2.54
  12  0.607  0.430  0.403-  17 2.45  14 2.46   8 2.51   5 2.51  28 2.52   3 2.59  19 2.62  24 2.64

  13  0.359  0.445  0.444-  18 2.43  20 2.47  11 2.54   6 2.54  37 2.57   4 2.60  38 2.66
  14  0.574  0.345  0.416-  19 2.37  12 2.46   5 2.49  15 2.54  28 2.57
  15  0.480  0.349  0.421-  19 2.43   5 2.44   6 2.47  20 2.52  14 2.54
  16  0.495  0.563  0.449-   7 2.42   2 2.44  22 2.45   9 2.46  34 2.52  26 2.53  33 2.56  18 2.58
                            17 2.58  25 2.58  10 2.59
  17  0.567  0.500  0.444-   8 2.39  26 2.44  12 2.45   7 2.48   3 2.48  24 2.49  10 2.53  21 2.54
                            36 2.55  25 2.55  16 2.58  19 2.67
  18  0.416  0.511  0.468-  11 2.39  26 2.42  13 2.43   9 2.47   4 2.50  23 2.51  38 2.51  30 2.54
                            10 2.55  33 2.56  16 2.58  20 2.71
  19  0.534  0.408  0.463-  14 2.37  15 2.43  26 2.45  28 2.48  36 2.55  35 2.57  20 2.57   5 2.60
                            12 2.62  10 2.65  17 2.67
  20  0.439  0.413  0.475-  13 2.47   6 2.48  37 2.50  15 2.52  26 2.53  35 2.56  19 2.57  30 2.66
                            10 2.69  18 2.71
  21  0.625  0.572  0.467-  25 2.48   7 2.51   8 2.51  29 2.52  17 2.54  24 2.60  34 2.63  32 2.65

  22  0.453  0.637  0.484-  27 2.36  16 2.45  39 2.48   9 2.50  23 2.51  33 2.55  34 2.59
  23  0.378  0.587  0.507-  33 2.50  18 2.51  22 2.51  38 2.52  11 2.52  47 2.55   9 2.60  39 2.63

  24  0.652  0.479  0.475-  17 2.49   8 2.49  36 2.53  31 2.53  32 2.54  28 2.55  21 2.60  12 2.64

  25  0.554  0.551  0.523-  29 2.40  32 2.47  26 2.47  21 2.48  34 2.50  44 2.52  41 2.53  33 2.54
                            42 2.54  17 2.55  36 2.56  16 2.58
  26  0.497  0.484  0.499-  10 2.41  30 2.42  36 2.42  18 2.42  17 2.44  19 2.45  42 2.45  33 2.46
                            35 2.47  25 2.47  16 2.53  20 2.53
  27  0.498  0.698  0.528-  41 2.34  22 2.36  34 2.57  39 2.76
  28  0.621  0.390  0.487-  36 2.46  19 2.48  31 2.52  12 2.52  24 2.55  14 2.57
  29  0.610  0.616  0.548-  25 2.40  41 2.47  32 2.49  21 2.52  44 2.52  34 2.52
  30  0.426  0.472  0.554-  37 2.38  46 2.39  26 2.42  40 2.42  38 2.52  51 2.54  18 2.54  33 2.55
                            47 2.55  35 2.57  42 2.57  20 2.66
  31  0.659  0.437  0.559-  36 2.37  32 2.50  43 2.51  28 2.52  24 2.53  45 2.55
  32  0.637  0.528  0.555-  25 2.47  29 2.49  31 2.50  36 2.52  24 2.54  44 2.57  45 2.60  21 2.65

  33  0.461  0.559  0.538-  39 2.42  47 2.45  26 2.46  23 2.50  49 2.52  25 2.54  42 2.54  30 2.55
                            22 2.55  16 2.56  18 2.56  41 2.59
  34  0.549  0.633  0.479-  25 2.50  29 2.52  16 2.52  27 2.57  22 2.59  41 2.59  21 2.63   7 2.72

  35  0.497  0.408  0.551-  48 2.47  26 2.47  43 2.51  40 2.51  20 2.56  19 2.57  30 2.57  42 2.62
                            36 2.64
  36  0.578  0.459  0.529-  31 2.37  43 2.40  26 2.42  28 2.46  32 2.52  24 2.53  45 2.53  17 2.55
                            19 2.55  25 2.56  42 2.58  35 2.64
  37  0.366  0.410  0.533-  30 2.38  46 2.50  20 2.50  38 2.53  13 2.57  40 2.65
  38  0.342  0.501  0.524-  46 2.50  11 2.50  18 2.51  30 2.52  23 2.52  37 2.53  47 2.62  13 2.66

  39  0.430  0.635  0.574-  33 2.42  41 2.47  22 2.48  49 2.57  47 2.60  23 2.63  27 2.76
  40  0.426  0.402  0.611-  30 2.42  51 2.48  46 2.49  35 2.51  48 2.53  37 2.65
  41  0.522  0.626  0.571-  27 2.34  39 2.47  44 2.47  29 2.47  49 2.48  25 2.53  33 2.59  34 2.59

  42  0.512  0.497  0.588-  50 2.39  26 2.45  48 2.46  44 2.49  51 2.49  45 2.50  49 2.51  25 2.54
                            33 2.54  30 2.57  36 2.58  35 2.62
  43  0.583  0.389  0.584-  36 2.40  45 2.46  31 2.51  35 2.51  48 2.56
  44  0.572  0.562  0.615-  41 2.47  42 2.49  50 2.49  25 2.52  29 2.52  45 2.53  32 2.57  49 2.65

  45  0.596  0.472  0.621-  43 2.46  42 2.50  44 2.53  36 2.53  50 2.54  31 2.55  32 2.60  48 2.64

  46  0.356  0.464  0.609-  30 2.39  40 2.49  38 2.50  37 2.50  47 2.50  51 2.54
  47  0.390  0.550  0.594-  33 2.45  46 2.50  49 2.55  23 2.55  30 2.55  39 2.60  51 2.60  38 2.62

  48  0.513  0.422  0.640-  42 2.46  35 2.47  40 2.53  50 2.54  43 2.56  51 2.62  45 2.64
  49  0.475  0.572  0.630-  41 2.48  42 2.51  51 2.51  33 2.52  50 2.53  47 2.55  39 2.57  44 2.65

  50  0.527  0.508  0.675-  42 2.39  44 2.49  51 2.53  49 2.53  48 2.54  45 2.54
  51  0.440  0.486  0.646-  40 2.48  42 2.49  49 2.51  50 2.53  30 2.54  46 2.54  47 2.60  48 2.62

 
  LATTYP: Found a simple cubic cell.
 ALAT       =    26.8330440000
  
  Lattice vectors:
  
 A1 = (  26.8330440000,   0.0000000000,   0.0000000000)
 A2 = (   0.0000000000,  26.8330440000,   0.0000000000)
 A3 = (   0.0000000000,   0.0000000000,  26.8330440000)


Analysis of symmetry for initial positions (statically):
=====================================================================
 Subroutine PRICEL returns:
 Original cell was already a primitive cell.
 

 Routine SETGRP: Setting up the symmetry group for a 
 simple cubic supercell.


 Subroutine GETGRP returns: Found  1 space group operations
 (whereof  1 operations were pure point group operations)
 out of a pool of 48 trial point group operations.


The static configuration has the point symmetry C_1 .


Analysis of symmetry for dynamics (positions and initial velocities):
=====================================================================
 Subroutine PRICEL returns:
 Original cell was already a primitive cell.
 

 Routine SETGRP: Setting up the symmetry group for a 
 simple cubic supercell.


 Subroutine GETGRP returns: Found  1 space group operations
 (whereof  1 operations were pure point group operations)
 out of a pool of 48 trial point group operations.


The dynamic configuration has the point symmetry C_1 .


Analysis of structural, dynamic, and magnetic symmetry:
=====================================================================
 Subroutine PRICEL returns:
 Original cell was already a primitive cell.
 

 Routine SETGRP: Setting up the symmetry group for a 
 simple cubic supercell.


 Subroutine GETGRP returns: Found  1 space group operations
 (whereof  1 operations were pure point group operations)
 out of a pool of 48 trial point group operations.


The magnetic configuration has the point symmetry C_1 .


 Subroutine INISYM returns: Found  1 space group operations
 (whereof  1 operations are pure point group operations),
 and found     1 'primitive' translations

 
 
 KPOINTS: Gamma-point only                        
  k-points in reciprocal lattice
Space group operators:
 irot       det(A)        alpha          n_x          n_y          n_z        tau_x        tau_y        tau_z
    1     1.000000     0.000001     1.000000     0.000000     0.000000     0.000000     0.000000     0.000000


--------------------------------------------------------------------------------------------------------




 Dimension of arrays:
   k-points           NKPTS =      1   k-points in BZ     NKDIM =      1   number of bands    NBANDS=    416
   number of dos      NEDOS =    301   number of ions     NIONS =     51
   non local maximal  LDIM  =      6   non local SUM 2l+1 LMDIM =     18
   total plane-waves  NPLWV = ******
   max r-space proj   IRMAX =      1   max aug-charges    IRDMAX=   2790
   dimension x,y,z NGX =   120 NGY =  120 NGZ =  120
   dimension x,y,z NGXF=   240 NGYF=  240 NGZF=  240
   support grid    NGXF=   240 NGYF=  240 NGZF=  240
   ions per type =              51
 NGX,Y,Z   is equivalent  to a cutoff of   7.43,  7.43,  7.43 a.u.
 NGXF,Y,Z  is equivalent  to a cutoff of  14.87, 14.87, 14.87 a.u.


 I would recommend the setting:
   dimension x,y,z NGX =   113 NGY =  113 NGZ =  113
 SYSTEM =  unknown system                          
 POSCAR =  unknown system                          

 Startparameter for this run:
   NWRITE =      2    write-flag & timer
   PREC   = normal    normal or accurate (medium, high low for compatibility)
   ISTART =      0    job   : 0-new  1-cont  2-samecut
   ICHARG =      2    charge: 1-file 2-atom 10-const
   ISPIN  =      2    spin polarized calculation?
   LNONCOLLINEAR =      F non collinear calculations
   LSORBIT =      F    spin-orbit coupling
   INIWAV =      1    electr: 0-lowe 1-rand  2-diag
   LASPH  =      F    aspherical Exc in radial PAW
   METAGGA=      F    non-selfconsistent MetaGGA calc.

 Electronic Relaxation 1
   ENCUT  =  295.4 eV  21.71 Ry    4.66 a.u.  37.61 37.61 37.61*2*pi/ulx,y,z
   ENINI  =  295.4     initial cutoff
   ENAUG  =  587.0 eV  augmentation charge cutoff
   NELM   =     60;   NELMIN=  2; NELMDL=  0     # of ELM steps 
   EDIFF  = 0.1E-05   stopping-criterion for ELM
   LREAL  =      F    real-space projection
   NLSPLINE    = F    spline interpolate recip. space projectors
   LCOMPAT=      F    compatible to vasp.4.4
   GGA_COMPAT  = T    GGA compatible to vasp.4.4-vasp.4.6
   LMAXPAW     = -100 max onsite density
   LMAXMIX     =    2 max onsite mixed and CHGCAR
   VOSKOWN=      0    Vosko Wilk Nusair interpolation
   ROPT   =    0.00000
 Ionic relaxation
   EDIFFG = -.3E-01   stopping-criterion for IOM
   NSW    =   1000    number of steps for IOM
   NBLOCK =      1;   KBLOCK =   1000    inner block; outer block 
   IBRION =      2    ionic relax: 0-MD 1-quasi-New 2-CG
   NFREE  =      1    steps in history (QN), initial steepest desc. (CG)
   ISIF   =      2    stress and relaxation
   IWAVPR =     11    prediction:  0-non 1-charg 2-wave 3-comb
   ISYM   =      2    0-nonsym 1-usesym 2-fastsym
   LCORR  =      T    Harris-Foulkes like correction to forces

   POTIM  = 0.5000    time-step for ionic-motion
   TEIN   =    0.0    initial temperature
   TEBEG  =    0.0;   TEEND  =   0.0 temperature during run
   SMASS  =  -3.00    Nose mass-parameter (am)
   estimated Nose-frequenzy (Omega)   =  0.10E-29 period in steps =****** mass=  -0.165E-25a.u.
   SCALEE = 1.0000    scale energy and forces
   NPACO  =    256;   APACO  = 16.0  distance and # of slots for P.C.
   PSTRESS=    0.0 pullay stress

  Mass of Ions in am
   POMASS =  63.55
  Ionic Valenz
   ZVAL   =  11.00
  Atomic Wigner-Seitz radii
   RWIGS  =  -1.00
  virtual crystal weights 
   VCA    =   1.00
   NELECT =     561.0000    total number of electrons
   NUPDOWN=      -1.0000    fix difference up-down

 DOS related values:
   EMIN   =  10.00;   EMAX   =-10.00  energy-range for DOS
   EFERMI =   0.00
   ISMEAR =     0;   SIGMA  =   0.00  broadening in eV -4-tet -1-fermi 0-gaus

 Electronic relaxation 2 (details)
   IALGO  =     38    algorithm
   LDIAG  =      T    sub-space diagonalisation (order eigenvalues)
   LSUBROT=      F    optimize rotation matrix (better conditioning)
   TURBO    =      0    0=normal 1=particle mesh
   IRESTART =      0    0=no restart 2=restart with 2 vectors
   NREBOOT  =      0    no. of reboots
   NMIN     =      0    reboot dimension
   EREF     =   0.00    reference energy to select bands
   IMIX   =      4    mixing-type and parameters
     AMIX     =   0.40;   BMIX     =  1.00
     AMIX_MAG =   1.60;   BMIX_MAG =  1.00
     AMIN     =   0.10
     WC   =   100.;   INIMIX=   1;  MIXPRE=   1;  MAXMIX= -45

 Intra band minimization:
   WEIMIN = 0.0010     energy-eigenvalue tresh-hold
   EBREAK =  0.60E-09  absolut break condition
   DEPER  =   0.30     relativ break condition  

   TIME   =   0.40     timestep for ELM

  volume/ion in A,a.u.               =     378.83      2556.44
  Fermi-wavevector in a.u.,A,eV,Ry     =   0.503183  0.950878  3.444900  0.253193
  Thomas-Fermi vector in A             =   1.512575
 
 Write flags
   LWAVE  =      F    write WAVECAR
   LCHARG =      F    write CHGCAR
   LVTOT  =      F    write LOCPOT, total local potential
   LVHAR  =      F    write LOCPOT, Hartree potential only
   LELF   =      F    write electronic localiz. function (ELF)
   LORBIT =     11    0 simple, 1 ext, 2 COOP (PROOUT)


 Dipole corrections
   LMONO  =      F    monopole corrections only (constant potential shift)
   LDIPOL =      F    correct potential (dipole corrections)
   IDIPOL =      0    1-x, 2-y, 3-z, 4-all directions 
   EPSILON=  1.0000000 bulk dielectric constant

 Exchange correlation treatment:
   GGA     =    PE    GGA type
   LEXCH   =     8    internal setting for exchange type
   VOSKOWN=      0    Vosko Wilk Nusair interpolation
   LHFCALC =     F    Hartree Fock is set to
   LHFONE  =     F    Hartree Fock one center treatment
   AEXX    =    0.0000 exact exchange contribution

 Linear response parameters
   LEPSILON=     F    determine dielectric tensor
   LRPA    =     F    only Hartree local field effects (RPA)
   LNABLA  =     F    use nabla operator in PAW spheres
   LVEL    =     F    velocity operator in full k-point grid
   LINTERFAST=   F  fast interpolation
   KINTER  =     0    interpolate to denser k-point grid
   CSHIFT  =0.1000    complex shift for real part using Kramers Kronig
   OMEGAMAX=  -1.0    maximum frequency
   DEG_THRESHOLD= 0.2000000E-02 threshold for treating states as degnerate
   RTIME   =    0.100 relaxation time in fs

 Orbital magnetization related:
   ORBITALMAG=     F  switch on orbital magnetization
   LCHIMAG   =     F  perturbation theory with respect to B field
   DQ        =  0.001000  dq finite difference perturbation B field



--------------------------------------------------------------------------------------------------------


 conjugate gradient relaxation of ions
 charge density and potential will be updated during run
 spin polarized calculation
 Variant of blocked Davidson
 Davidson routine will perform the subspace rotation
 perform sub-space diagonalisation
    after iterative eigenvector-optimisation
 modified Broyden-mixing scheme, WC =      100.0
 initial mixing is a Kerker type mixing with AMIX =  0.4000 and BMIX =      1.0000
 Hartree-type preconditioning will be used
 using additional bands          135
 reciprocal scheme for non local part
 use partial core corrections
 calculate Harris-corrections to forces 
   (improved forces if not selfconsistent)
 use gradient corrections 
 use of overlap-Matrix (Vanderbilt PP)
 Gauss-broadening in eV      SIGMA  =   0.00


--------------------------------------------------------------------------------------------------------


  energy-cutoff  :      295.45
  volume of cell :    19320.12
      direct lattice vectors                 reciprocal lattice vectors
    26.833044000  0.000000000  0.000000000     0.037267483  0.000000000  0.000000000
     0.000000000 26.833044000  0.000000000     0.000000000  0.037267483  0.000000000
     0.000000000  0.000000000 26.833044000     0.000000000  0.000000000  0.037267483

  length of vectors
    26.833044000 26.833044000 26.833044000     0.037267483  0.037267483  0.037267483


 
 k-points in units of 2pi/SCALE and weight: Gamma-point only                        
   0.00000000  0.00000000  0.00000000       1.000
 
 k-points in reciprocal lattice and weights: Gamma-point only                        
   0.00000000  0.00000000  0.00000000       1.000
 
 position of ions in fractional coordinates (direct lattice) 
   0.46846141  0.46673259  0.32318711
   0.48014578  0.55238327  0.35947109
   0.55414037  0.49355126  0.35326614
   0.39948028  0.50217640  0.37704378
   0.52464552  0.40587649  0.36627417
   0.42342677  0.41139256  0.38444544
   0.56557463  0.57847510  0.39528430
   0.63701242  0.51815127  0.39181671
   0.41210043  0.58697569  0.41653572
   0.48287107  0.47546869  0.41057951
   0.33662556  0.53701748  0.43844409
   0.60746788  0.42999234  0.40266662
   0.35864423  0.44532035  0.44430134
   0.57443908  0.34544506  0.41582372
   0.47995786  0.34862126  0.42068853
   0.49454867  0.56321335  0.44875174
   0.56721614  0.50033674  0.44444100
   0.41627554  0.51097179  0.46834727
   0.53368361  0.40840222  0.46260905
   0.43901146  0.41289311  0.47535381
   0.62466606  0.57191783  0.46725976
   0.45310791  0.63657152  0.48389392
   0.37750330  0.58654071  0.50721208
   0.65239766  0.47923457  0.47482381
   0.55415677  0.55140716  0.52347496
   0.49668533  0.48359532  0.49906897
   0.49810735  0.69785677  0.52836613
   0.62089828  0.39027006  0.48680580
   0.61038481  0.61647977  0.54849200
   0.42613697  0.47194098  0.55387409
   0.65852103  0.43720404  0.55899187
   0.63742392  0.52773659  0.55460083
   0.46099783  0.55870578  0.53790089
   0.54930782  0.63336065  0.47915802
   0.49721432  0.40776132  0.55099455
   0.57814717  0.45940735  0.52931810
   0.36577071  0.41027490  0.53307974
   0.34197499  0.50115246  0.52441231
   0.43021825  0.63542345  0.57359681
   0.42557556  0.40221954  0.61107594
   0.52156610  0.62586338  0.57130286
   0.51211441  0.49681281  0.58826258
   0.58263308  0.38878482  0.58387067
   0.57191236  0.56242577  0.61497880
   0.59559732  0.47156315  0.62132831
   0.35638731  0.46409826  0.60864305
   0.38958601  0.55006230  0.59407951
   0.51309119  0.42158867  0.64043336
   0.47476154  0.57182161  0.62972594
   0.52708584  0.50823747  0.67543598
   0.44034009  0.48628402  0.64620723
 
 position of ions in cartesian coordinates  (Angst):
  12.57024563 12.52385612  8.67209394
  12.88377284 14.82212459  9.64570357
  14.86927293 13.24348268  9.47920588
  10.71927193 13.47492144 10.11723234
  14.07783632 10.89090171  9.82825092
  11.36182915 11.03891466 10.31584141
  15.17608893 15.52224781 10.60668101
  17.09298229 13.90357583 10.51363502
  11.05790897 15.75034452 11.17692130
  12.95690067 12.75827228 11.01709806
   9.03268846 14.40981367 11.76478956
  16.30021235 11.53800338 10.80477113
   9.62351640 11.94930055 11.92195741
  15.41394911  9.26934249 11.15781618
  12.87873038  9.35456961 11.28835384
  13.27024622 15.11272860 12.04137518
  15.22013564 13.42555776 11.92570491
  11.16993988 13.71092852 12.56718290
  14.32035579 10.95867474 12.41320899
  11.78001382 11.07917899 12.75518970
  16.76169187 15.34629630 12.53800170
  12.15826449 17.08115161 12.98434685
  10.12956266 15.73867268 13.61004406
  17.50581512 12.85932230 12.74096819
  14.86971299 14.79593259 14.04642663
  13.32757931 12.97633450 13.39153963
  13.36573644 18.72562142 14.17767161
  16.66059087 10.47213369 13.06248145
  16.37848246 16.54202879 14.71770997
  11.43455207 12.66361308 14.86212783
  17.67012377 11.73151524 14.99945344
  17.10402409 14.16077914 14.88162847
  12.36997506 14.99177678 14.43351825
  14.73960090 16.99499419 12.85726823
  13.34177373 10.94147744 14.78486100
  15.51344845 12.32729764 14.20321587
   9.81474156 11.00892444 14.30415212
   9.17622995 13.44744601 14.07157859
  11.54406523 17.05034539 15.39134844
  11.41948773 10.79277461 16.39702759
  13.99520611 16.79381961 15.32979478
  13.74158850 13.33099999 15.78487569
  15.63381907 10.43228018 15.66702738
  15.34614952 15.09159543 16.50175320
  15.98168909 12.65347475 16.67212988
   9.56295637 12.45316903 16.33174574
  10.45377855 14.75984590 15.94096163
  13.76779848 11.31250733 17.18477653
  12.73929729 15.34371442 16.89746386
  14.14331754 13.63755839 18.12400337
  11.81566501 13.04848051 17.33970704
 


--------------------------------------------------------------------------------------------------------


 use parallel FFT for wavefunctions z direction half grid
 k-point  1 :   0.0000 0.0000 0.0000  plane waves:  111472

 maximum and minimum number of plane-waves per node :     18581    18576

 maximum number of plane-waves:    111472
 maximum index in each direction: 
   IXMAX=   37   IYMAX=   37   IZMAX=   37
   IXMIN=  -37   IYMIN=  -37   IZMIN=    0

 WARNING: aliasing errors must be expected set NGX to 150 to avoid them
 WARNING: aliasing errors must be expected set NGY to 150 to avoid them
 WARNING: aliasing errors must be expected set NGZ to 150 to avoid them
 aliasing errors are usually negligible using standard VASP settings
 and one can safely disregard these warnings

 parallel 3D FFT for wavefunctions:
    minimum data exchange during FFTs selected (reduces bandwidth)
 parallel 3D FFT for charge:
    minimum data exchange during FFTs selected (reduces bandwidth)


 total amount of memory used by VASP on root node   200575. kBytes
========================================================================

   base      :      30000. kBytes
   nonl-proj :      17836. kBytes
   fftplans  :      25636. kBytes
   grid      :      64857. kBytes
   one-center:        139. kBytes
   wavefun   :      62107. kBytes
 
     INWAV:  cpu time    0.0000: real time    0.0003
 Broyden mixing: mesh for mixing (old mesh)
   NGX = 75   NGY = 75   NGZ = 75
  (NGX  =240   NGY  =240   NGZ  =240)
  gives a total of 421875 points

 initial charge density was supplied:
 charge density of overlapping atoms calculated
 number of electron     561.0000000 magnetization     153.0000000
 keeping initial charge density in first step


--------------------------------------------------------------------------------------------------------


 Maximum index for augmentation-charges          224 (set IRDMAX)


--------------------------------------------------------------------------------------------------------


 First call to EWALD:  gamma=   0.066
 Maximum number of real-space cells 3x 3x 3
 Maximum number of reciprocal cells 3x 3x 3

 FEWALD executed in parallel
    FEWALD:  cpu time    0.0031: real time    0.0031


----------------------------------------- Iteration    1(   1)  ---------------------------------------


    POTLOK:  cpu time    1.1120: real time    1.1133
    SETDIJ:  cpu time    0.0258: real time    0.0264
     EDDAV:  cpu time   68.6740: real time   69.0521
       DOS:  cpu time    0.0002: real time    0.0002
    --------------------------------------------
      LOOP:  cpu time   69.8154: real time   70.2137

 eigenvalue-minimisations  :  1720
 total energy-change (2. order) : 0.3659865E+04  (-0.1206906E+05)
 number of electron     561.0000000 magnetization     153.0000000
 augmentation part      561.0000000 magnetization     153.0000000

 Free energy of the ion-electron system (eV)
  ---------------------------------------------------
  alpha Z        PSCENC =        98.45612685
  Ewald energy   TEWEN  =    246865.01612377
  -Hartree energ DENC   =   -311489.66338982
  -exchange      EXHF   =         0.00000000
  -V(xc)+E(xc)   XCENC  =      2358.13902980
  PAW double counting   =     62588.07616994   -67977.68971969
  entropy T*S    EENTRO =         0.00000000
  eigenvalues    EBANDS =       279.81602310
  atomic energy  EATOM  =     70937.71481755
  Solvation  Ediel_sol  =         0.00000000
  ---------------------------------------------------
  free energy    TOTEN  =      3659.86518149 eV

  energy without entropy =     3659.86518149  energy(sigma->0) =     3659.86518149


--------------------------------------------------------------------------------------------------------




----------------------------------------- Iteration    1(   2)  ---------------------------------------


     EDDAV:  cpu time   69.7598: real time   69.9375
       DOS:  cpu time    0.0002: real time    0.0002
    --------------------------------------------
      LOOP:  cpu time   69.7639: real time   69.9443

 eigenvalue-minimisations  :  1760
 total energy-change (2. order) :-0.3470888E+04  (-0.3126408E+04)
 number of electron     561.0000000 magnetization     153.0000000
 augmentation part      561.0000000 magnetization     153.0000000

 Free energy of the ion-electron system (eV)
  ---------------------------------------------------
  alpha Z        PSCENC =        98.45612685
  Ewald energy   TEWEN  =    246865.01612377
  -Hartree energ DENC   =   -311489.66338982
  -exchange      EXHF   =         0.00000000
  -V(xc)+E(xc)   XCENC  =      2358.13902980
  PAW double counting   =     62588.07616994   -67977.68971969
  entropy T*S    EENTRO =         0.00000000
  eigenvalues    EBANDS =     -3191.07174363
  atomic energy  EATOM  =     70937.71481755
  Solvation  Ediel_sol  =         0.00000000
  ---------------------------------------------------
  free energy    TOTEN  =       188.97741476 eV

  energy without entropy =      188.97741476  energy(sigma->0) =      188.97741476


--------------------------------------------------------------------------------------------------------




----------------------------------------- Iteration    1(   3)  ---------------------------------------


     EDDAV:  cpu time   77.6006: real time   77.8353
       DOS:  cpu time    0.0002: real time    0.0002
    --------------------------------------------
      LOOP:  cpu time   77.6107: real time   77.8479

 eigenvalue-minimisations  :  1976
 total energy-change (2. order) :-0.2859648E+03  (-0.2707041E+03)
 number of electron     561.0000000 magnetization     153.0000000
 augmentation part      561.0000000 magnetization     153.0000000

 Free energy of the ion-electron system (eV)
  ---------------------------------------------------
  alpha Z        PSCENC =        98.45612685
  Ewald energy   TEWEN  =    246865.01612377
  -Hartree energ DENC   =   -311489.66338982
  -exchange      EXHF   =         0.00000000
  -V(xc)+E(xc)   XCENC  =      2358.13902980
  PAW double counting   =     62588.07616994   -67977.68971969
  entropy T*S    EENTRO =        -0.00000000
  eigenvalues    EBANDS =     -3477.03650227
  atomic energy  EATOM  =     70937.71481755
  Solvation  Ediel_sol  =         0.00000000
  ---------------------------------------------------
  free energy    TOTEN  =       -96.98734387 eV

  energy without entropy =      -96.98734387  energy(sigma->0) =      -96.98734387


--------------------------------------------------------------------------------------------------------




----------------------------------------- Iteration    1(   4)  ---------------------------------------


     EDDAV:  cpu time   80.3669: real time   80.5899
       DOS:  cpu time    0.0002: real time    0.0002
    --------------------------------------------
      LOOP:  cpu time   80.3723: real time   80.5980

 eigenvalue-minimisations  :  2072
 total energy-change (2. order) :-0.1660175E+02  (-0.1598483E+02)
 number of electron     561.0000000 magnetization     153.0000000
 augmentation part      561.0000000 magnetization     153.0000000

 Free energy of the ion-electron system (eV)
  ---------------------------------------------------
  alpha Z        PSCENC =        98.45612685
  Ewald energy   TEWEN  =    246865.01612377
  -Hartree energ DENC   =   -311489.66338982
  -exchange      EXHF   =         0.00000000
  -V(xc)+E(xc)   XCENC  =      2358.13902980
  PAW double counting   =     62588.07616994   -67977.68971969
  entropy T*S    EENTRO =         0.00000000
  eigenvalues    EBANDS =     -3493.63824819
  atomic energy  EATOM  =     70937.71481755
  Solvation  Ediel_sol  =         0.00000000
  ---------------------------------------------------
  free energy    TOTEN  =      -113.58908980 eV

  energy without entropy =     -113.58908980  energy(sigma->0) =     -113.58908980


--------------------------------------------------------------------------------------------------------




----------------------------------------- Iteration    1(   5)  ---------------------------------------


     EDDAV:  cpu time   83.2762: real time   83.9322
       DOS:  cpu time    0.0002: real time    0.0002
    CHARGE:  cpu time    1.5594: real time    1.5611
    MIXING:  cpu time    0.0239: real time    0.0239
    --------------------------------------------
      LOOP:  cpu time   84.8647: real time   85.5252

 eigenvalue-minimisations  :  2168
 total energy-change (2. order) :-0.5815746E+00  (-0.5795124E+00)
 number of electron     561.0001482 magnetization     142.6871446
 augmentation part      330.1687107 magnetization     138.1671037

 Broyden mixing:
  rms(total) = 0.12911E+02    rms(broyden)= 0.12909E+02
  rms(prec ) = 0.13013E+02
  weight for this iteration     100.00

 Free energy of the ion-electron system (eV)
  ---------------------------------------------------
  alpha Z        PSCENC =        98.45612685
  Ewald energy   TEWEN  =    246865.01612377
  -Hartree energ DENC   =   -311489.66338982
  -exchange      EXHF   =         0.00000000
  -V(xc)+E(xc)   XCENC  =      2358.13902980
  PAW double counting   =     62588.07616994   -67977.68971969
  entropy T*S    EENTRO =         0.00000000
  eigenvalues    EBANDS =     -3494.21982282
  atomic energy  EATOM  =     70937.71481755
  Solvation  Ediel_sol  =         0.00000000
  ---------------------------------------------------
  free energy    TOTEN  =      -114.17066442 eV

  energy without entropy =     -114.17066442  energy(sigma->0) =     -114.17066442


--------------------------------------------------------------------------------------------------------




----------------------------------------- Iteration    1(   6)  ---------------------------------------


    POTLOK:  cpu time    1.1053: real time    1.1129
    SETDIJ:  cpu time    0.0267: real time    0.0272
     EDDAV:  cpu time   71.2991: real time   71.4668
       DOS:  cpu time    0.0002: real time    0.0002
    CHARGE:  cpu time    1.5276: real time    1.5291
    MIXING:  cpu time    0.0248: real time    0.0248
    --------------------------------------------
      LOOP:  cpu time   73.9867: real time   74.1664

 eigenvalue-minimisations  :  1784
 total energy-change (2. order) : 0.3212072E+03  (-0.1995720E+03)
 number of electron     561.0001713 magnetization     135.2222579
 augmentation part      385.8357905 magnetization      91.1389841

 Broyden mixing:
  rms(total) = 0.63035E+01    rms(broyden)= 0.63002E+01
  rms(prec ) = 0.64585E+01
  weight for this iteration     100.00

 eigenvalues of (default mixing * dielectric matrix)
  average eigenvalue GAMMA=   0.9351
  0.9351

 Free energy of the ion-electron system (eV)
  ---------------------------------------------------
  alpha Z        PSCENC =        98.45612685
  Ewald energy   TEWEN  =    246865.01612377
  -Hartree energ DENC   =   -310007.73299227
  -exchange      EXHF   =         0.00000000
  -V(xc)+E(xc)   XCENC  =      2514.31775895
  PAW double counting   =     62852.02910340   -67962.98937920
  entropy T*S    EENTRO =         0.00000000
  eigenvalues    EBANDS =     -5089.77497994
  atomic energy  EATOM  =     70937.71481755
  Solvation  Ediel_sol  =         0.00000000
  ---------------------------------------------------
  free energy    TOTEN  =       207.03657912 eV

  energy without entropy =      207.03657912  energy(sigma->0) =      207.03657912


--------------------------------------------------------------------------------------------------------




----------------------------------------- Iteration    1(   7)  ---------------------------------------


    POTLOK:  cpu time    1.1184: real time    1.1199
    SETDIJ:  cpu time    0.0255: real time    0.0261
     EDDAV:  cpu time   75.2388: real time   75.4224
       DOS:  cpu time    0.0002: real time    0.0002
    CHARGE:  cpu time    1.5376: real time    1.5461
    MIXING:  cpu time    0.0262: real time    0.0262
    --------------------------------------------
      LOOP:  cpu time   77.9499: real time   78.1467

 eigenvalue-minimisations  :  1920
 total energy-change (2. order) : 0.9255196E+01  (-0.7408810E+02)
 number of electron     561.0001629 magnetization     126.3154208
 augmentation part      363.1266140 magnetization      81.6432627

 Broyden mixing:
  rms(total) = 0.34255E+01    rms(broyden)= 0.34241E+01
  rms(prec ) = 0.34621E+01
  weight for this iteration     100.00

 eigenvalues of (default mixing * dielectric matrix)
  average eigenvalue GAMMA=   0.8720
  1.0349  0.7090

 Free energy of the ion-electron system (eV)
  ---------------------------------------------------
  alpha Z        PSCENC =        98.45612685
  Ewald energy   TEWEN  =    246865.01612377
  -Hartree energ DENC   =   -311212.32021385
  -exchange      EXHF   =         0.00000000
  -V(xc)+E(xc)   XCENC  =      2548.14080509
  PAW double counting   =     64785.67642033   -70330.28168906
  entropy T*S    EENTRO =         0.00000000
  eigenvalues    EBANDS =     -3476.11061553
  atomic energy  EATOM  =     70937.71481755
  Solvation  Ediel_sol  =         0.00000000
  ---------------------------------------------------
  free energy    TOTEN  =       216.29177516 eV

  energy without entropy =      216.29177516  energy(sigma->0) =      216.29177516


--------------------------------------------------------------------------------------------------------




----------------------------------------- Iteration    1(   8)  ---------------------------------------


    POTLOK:  cpu time    1.1096: real time    1.1111
    SETDIJ:  cpu time    0.0254: real time    0.0261
     EDDAV:  cpu time   84.0002: real time   84.2040
       DOS:  cpu time    0.0004: real time    0.0004
    CHARGE:  cpu time    1.5284: real time    1.5299
    MIXING:  cpu time    0.0273: real time    0.0273
    --------------------------------------------
      LOOP:  cpu time   86.6945: real time   87.5348

 eigenvalue-minimisations  :  2216
 total energy-change (2. order) : 0.6772067E+01  (-0.1446357E+02)
 number of electron     561.0001587 magnetization     120.9134674
 augmentation part      357.2305694 magnetization      74.6437150

 Broyden mixing:
  rms(total) = 0.33096E+01    rms(broyden)= 0.33091E+01
  rms(prec ) = 0.33828E+01
  weight for this iteration     100.00

 eigenvalues of (default mixing * dielectric matrix)
  average eigenvalue GAMMA=   0.7648
  1.0737  0.7390  0.4816

 Free energy of the ion-electron system (eV)
  ---------------------------------------------------
  alpha Z        PSCENC =        98.45612685
  Ewald energy   TEWEN  =    246865.01612377
  -Hartree energ DENC   =   -311485.41676015
  -exchange      EXHF   =         0.00000000
  -V(xc)+E(xc)   XCENC  =      2560.55571765
  PAW double counting   =     65883.13667539   -71470.23810718
  entropy T*S    EENTRO =         0.00000000
  eigenvalues    EBANDS =     -3166.16075192
  atomic energy  EATOM  =     70937.71481755
  Solvation  Ediel_sol  =         0.00000000
  ---------------------------------------------------
  free energy    TOTEN  =       223.06384197 eV

  energy without entropy =      223.06384197  energy(sigma->0) =      223.06384197


--------------------------------------------------------------------------------------------------------




----------------------------------------- Iteration    1(   9)  ---------------------------------------


    POTLOK:  cpu time    1.1037: real time    1.1105
    SETDIJ:  cpu time    0.0258: real time    0.0258
     EDDAV:  cpu time   79.2366: real time   79.9573
       DOS:  cpu time    0.0004: real time    0.0003
    CHARGE:  cpu time    1.5388: real time    1.5404
    MIXING:  cpu time    0.0302: real time    0.0302
    --------------------------------------------
      LOOP:  cpu time   81.9389: real time   82.6707

 eigenvalue-minimisations  :  2072
 total energy-change (2. order) :-0.1393113E+02  (-0.4165678E+01)
 number of electron     561.0001605 magnetization     103.6579434
 augmentation part      359.2465767 magnetization      59.5054713

 Broyden mixing:
  rms(total) = 0.24033E+01    rms(broyden)= 0.24029E+01
  rms(prec ) = 0.24249E+01
  weight for this iteration     100.00

 eigenvalues of (default mixing * dielectric matrix)
  average eigenvalue GAMMA=   0.9555
  1.6093  1.0056  0.7962  0.4106

 Free energy of the ion-electron system (eV)
  ---------------------------------------------------
  alpha Z        PSCENC =        98.45612685
  Ewald energy   TEWEN  =    246865.01612377
  -Hartree energ DENC   =   -311383.04590982
  -exchange      EXHF   =         0.00000000
  -V(xc)+E(xc)   XCENC  =      2542.13323622
  PAW double counting   =     66149.39282029   -71710.27051834
  entropy T*S    EENTRO =         0.00000000
  eigenvalues    EBANDS =     -3290.26398602
  atomic energy  EATOM  =     70937.71481755
  Solvation  Ediel_sol  =         0.00000000
  ---------------------------------------------------
  free energy    TOTEN  =       209.13271051 eV

  energy without entropy =      209.13271051  energy(sigma->0) =      209.13271051


--------------------------------------------------------------------------------------------------------




----------------------------------------- Iteration    1(  10)  ---------------------------------------


    POTLOK:  cpu time    1.1120: real time    1.1139
    SETDIJ:  cpu time    0.0259: real time    0.0265
     EDDAV:  cpu time  100.4890: real time  100.7451
       DOS:  cpu time    0.0002: real time    0.0002
    CHARGE:  cpu time    1.5473: real time    1.5492
    MIXING:  cpu time    0.0329: real time    0.0329
    --------------------------------------------
      LOOP:  cpu time  103.2104: real time  103.4736

 eigenvalue-minimisations  :  2752
 total energy-change (2. order) :-0.8383592E+02  (-0.4181309E+01)
 number of electron     561.0001623 magnetization      89.5186523
 augmentation part      362.1726928 magnetization      50.9283624

 Broyden mixing:
  rms(total) = 0.20124E+01    rms(broyden)= 0.20114E+01
  rms(prec ) = 0.20576E+01
  weight for this iteration     100.00

 eigenvalues of (default mixing * dielectric matrix)
  average eigenvalue GAMMA=   1.1033
  2.7679  1.0935  0.7274  0.5196  0.4079

 Free energy of the ion-electron system (eV)
  ---------------------------------------------------
  alpha Z        PSCENC =        98.45612685
  Ewald energy   TEWEN  =    246865.01612377
  -Hartree energ DENC   =   -311387.06374526
  -exchange      EXHF   =         0.00000000
  -V(xc)+E(xc)   XCENC  =      2469.64967774
  PAW double counting   =     66731.35544964   -72228.89791686
  entropy T*S    EENTRO =         0.00000000
  eigenvalues    EBANDS =     -3360.93374679
  atomic energy  EATOM  =     70937.71481755
  Solvation  Ediel_sol  =         0.00000000
  ---------------------------------------------------
  free energy    TOTEN  =       125.29678665 eV

  energy without entropy =      125.29678665  energy(sigma->0) =      125.29678665


--------------------------------------------------------------------------------------------------------




----------------------------------------- Iteration    1(  11)  ---------------------------------------


    POTLOK:  cpu time    1.1095: real time    1.1106
    SETDIJ:  cpu time    0.0261: real time    0.0266
     EDDAV:  cpu time   81.3668: real time   81.5618
       DOS:  cpu time    0.0002: real time    0.0002
    CHARGE:  cpu time    1.5460: real time    1.5487
    MIXING:  cpu time    0.0357: real time    0.0357
    --------------------------------------------
      LOOP:  cpu time   84.0875: real time   84.2892

 eigenvalue-minimisations  :  2136
 total energy-change (2. order) :-0.3702223E+02  (-0.4228631E+01)
 number of electron     561.0001624 magnetization      81.9128988
 augmentation part      363.6468920 magnetization      47.5363802

 Broyden mixing:
  rms(total) = 0.15270E+01    rms(broyden)= 0.15262E+01
  rms(prec ) = 0.15504E+01
  weight for this iteration     100.00

 eigenvalues of (default mixing * dielectric matrix)
  average eigenvalue GAMMA=   1.0853
  3.1597  1.1672  0.6463  0.6463  0.5138  0.3788

 Free energy of the ion-electron system (eV)
  ---------------------------------------------------
  alpha Z        PSCENC =        98.45612685
  Ewald energy   TEWEN  =    246865.01612377
  -Hartree energ DENC   =   -311420.62591556
  -exchange      EXHF   =         0.00000000
  -V(xc)+E(xc)   XCENC  =      2442.78555464
  PAW double counting   =     67044.96855212   -72519.74466881
  entropy T*S    EENTRO =         0.00000000
  eigenvalues    EBANDS =     -3360.29603244
  atomic energy  EATOM  =     70937.71481755
  Solvation  Ediel_sol  =         0.00000000
  ---------------------------------------------------
  free energy    TOTEN  =        88.27455812 eV

  energy without entropy =       88.27455812  energy(sigma->0) =       88.27455812


--------------------------------------------------------------------------------------------------------




----------------------------------------- Iteration    1(  12)  ---------------------------------------


    POTLOK:  cpu time    1.1064: real time    1.1132
    SETDIJ:  cpu time    0.0217: real time    0.0269
     EDDAV:  cpu time   73.4280: real time   74.0905
       DOS:  cpu time    0.0001: real time    0.0001
    CHARGE:  cpu time    1.5107: real time    1.5190
    MIXING:  cpu time    0.0366: real time    0.0366
    --------------------------------------------
      LOOP:  cpu time   76.1066: real time   76.7923

 eigenvalue-minimisations  :  1888
 total energy-change (2. order) :-0.2302754E+02  (-0.2109975E+01)
 number of electron     561.0001617 magnetization      65.5017326
 augmentation part      362.0368651 magnetization      34.8489103

 Broyden mixing:
  rms(total) = 0.12081E+01    rms(broyden)= 0.12078E+01
  rms(prec ) = 0.12217E+01
  weight for this iteration     100.00

 eigenvalues of (default mixing * dielectric matrix)
  average eigenvalue GAMMA=   1.2696
  4.2283  1.4590  0.8547  0.8547  0.6639  0.4134  0.4134

 Free energy of the ion-electron system (eV)
  ---------------------------------------------------
  alpha Z        PSCENC =        98.45612685
  Ewald energy   TEWEN  =    246865.01612377
  -Hartree energ DENC   =   -311479.68998321
  -exchange      EXHF   =         0.00000000
  -V(xc)+E(xc)   XCENC  =      2429.46318488
  PAW double counting   =     67003.64548519   -72495.24151032
  entropy T*S    EENTRO =         0.00000000
  eigenvalues    EBANDS =     -3294.11722159
  atomic energy  EATOM  =     70937.71481755
  Solvation  Ediel_sol  =         0.00000000
  ---------------------------------------------------
  free energy    TOTEN  =        65.24702312 eV

  energy without entropy =       65.24702312  energy(sigma->0) =       65.24702312


--------------------------------------------------------------------------------------------------------




----------------------------------------- Iteration    1(  13)  ---------------------------------------


    POTLOK:  cpu time    1.1074: real time    1.1081
    SETDIJ:  cpu time    0.0259: real time    0.0259
     EDDAV:  cpu time   76.7109: real time   76.9194
       DOS:  cpu time    0.0002: real time    0.0002
    CHARGE:  cpu time    1.5462: real time    1.5487
    MIXING:  cpu time    0.0413: real time    0.0413
    --------------------------------------------
      LOOP:  cpu time   79.4352: real time   79.6498

 eigenvalue-minimisations  :  1992
 total energy-change (2. order) :-0.6716701E+02  (-0.5256776E+01)
 number of electron     561.0001601 magnetization      52.1169243
 augmentation part      358.5952674 magnetization      29.2926477

 Broyden mixing:
  rms(total) = 0.10366E+01    rms(broyden)= 0.10358E+01
  rms(prec ) = 0.10631E+01
  weight for this iteration     100.00

 eigenvalues of (default mixing * dielectric matrix)
  average eigenvalue GAMMA=   1.3446
  5.2910  1.7076  1.0446  0.7002  0.7002  0.4058  0.4537  0.4537

 Free energy of the ion-electron system (eV)
  ---------------------------------------------------
  alpha Z        PSCENC =        98.45612685
  Ewald energy   TEWEN  =    246865.01612377
  -Hartree energ DENC   =   -311557.85846046
  -exchange      EXHF   =         0.00000000
  -V(xc)+E(xc)   XCENC  =      2385.51651745
  PAW double counting   =     66794.66612617   -72308.97305889
  entropy T*S    EENTRO =         0.00000000
  eigenvalues    EBANDS =     -3216.45817464
  atomic energy  EATOM  =     70937.71481755
  Solvation  Ediel_sol  =         0.00000000
  ---------------------------------------------------
  free energy    TOTEN  =        -1.91998220 eV

  energy without entropy =       -1.91998220  energy(sigma->0) =       -1.91998220


--------------------------------------------------------------------------------------------------------




----------------------------------------- Iteration    1(  14)  ---------------------------------------


    POTLOK:  cpu time    1.1080: real time    1.1094
    SETDIJ:  cpu time    0.0258: real time    0.0263
     EDDAV:  cpu time   82.8392: real time   83.0618
       DOS:  cpu time    0.0002: real time    0.0002
    CHARGE:  cpu time    1.5302: real time    1.5381
    MIXING:  cpu time    0.0449: real time    0.0450
    --------------------------------------------
      LOOP:  cpu time   85.5515: real time   85.8549

 eigenvalue-minimisations  :  2184
 total energy-change (2. order) :-0.4506037E+02  (-0.4405239E+01)
 number of electron     561.0001593 magnetization      42.8667323
 augmentation part      356.5853806 magnetization      24.2284055

 Broyden mixing:
  rms(total) = 0.89707E+00    rms(broyden)= 0.89647E+00
  rms(prec ) = 0.91935E+00
  weight for this iteration     100.00

 eigenvalues of (default mixing * dielectric matrix)
  average eigenvalue GAMMA=   1.4146
  6.1694  2.1715  1.0586  0.7383  0.7383  0.6234  0.4290  0.4290  0.3739

 Free energy of the ion-electron system (eV)
  ---------------------------------------------------
  alpha Z        PSCENC =        98.45612685
  Ewald energy   TEWEN  =    246865.01612377
  -Hartree energ DENC   =   -311597.89048817
  -exchange      EXHF   =         0.00000000
  -V(xc)+E(xc)   XCENC  =      2355.33565460
  PAW double counting   =     66673.09207488   -72190.31000417
  entropy T*S    EENTRO =         0.00000000
  eigenvalues    EBANDS =     -3188.39465495
  atomic energy  EATOM  =     70937.71481755
  Solvation  Ediel_sol  =         0.00000000
  ---------------------------------------------------
  free energy    TOTEN  =       -46.98034963 eV

  energy without entropy =      -46.98034963  energy(sigma->0) =      -46.98034963


--------------------------------------------------------------------------------------------------------




----------------------------------------- Iteration    1(  15)  ---------------------------------------


    POTLOK:  cpu time    1.1074: real time    1.1090
    SETDIJ:  cpu time    0.0260: real time    0.0265
     EDDAV:  cpu time   84.0606: real time   84.2732
       DOS:  cpu time    0.0002: real time    0.0002
    CHARGE:  cpu time    1.5160: real time    1.5176
    MIXING:  cpu time    0.0473: real time    0.0474
    --------------------------------------------
      LOOP:  cpu time   86.7607: real time   87.0087

 eigenvalue-minimisations  :  2208
 total energy-change (2. order) :-0.3649261E+02  (-0.4011653E+01)
 number of electron     561.0001595 magnetization      35.9632862
 augmentation part      357.3540114 magnetization      24.7115542

 Broyden mixing:
  rms(total) = 0.71447E+00    rms(broyden)= 0.71345E+00
  rms(prec ) = 0.73113E+00
  weight for this iteration     100.00

 eigenvalues of (default mixing * dielectric matrix)
  average eigenvalue GAMMA=   1.4314
  6.9528  2.4472  1.0340  0.7590  0.7590  0.5952  0.5952  0.4027  0.4027  0.3665

 Free energy of the ion-electron system (eV)
  ---------------------------------------------------
  alpha Z        PSCENC =        98.45612685
  Ewald energy   TEWEN  =    246865.01612377
  -Hartree energ DENC   =   -311526.94237776
  -exchange      EXHF   =         0.00000000
  -V(xc)+E(xc)   XCENC  =      2326.76106672
  PAW double counting   =     66437.56435782   -71931.67065082
  entropy T*S    EENTRO =         0.00000000
  eigenvalues    EBANDS =     -3290.37242507
  atomic energy  EATOM  =     70937.71481755
  Solvation  Ediel_sol  =         0.00000000
  ---------------------------------------------------
  free energy    TOTEN  =       -83.47296093 eV

  energy without entropy =      -83.47296093  energy(sigma->0) =      -83.47296093


--------------------------------------------------------------------------------------------------------




----------------------------------------- Iteration    1(  16)  ---------------------------------------


    POTLOK:  cpu time    1.0925: real time    1.1097
    SETDIJ:  cpu time    0.0260: real time    0.0267
     EDDAV:  cpu time   85.1990: real time   85.9260
       DOS:  cpu time    0.0002: real time    0.0002
    CHARGE:  cpu time    1.5369: real time    1.5384
    MIXING:  cpu time    0.0546: real time    0.0546
    --------------------------------------------
      LOOP:  cpu time   87.9125: real time   88.6618

 eigenvalue-minimisations  :  2256
 total energy-change (2. order) :-0.1781237E+02  (-0.1782844E+01)
 number of electron     561.0001599 magnetization      30.5201386
 augmentation part      357.8927748 magnetization      22.8260268

 Broyden mixing:
  rms(total) = 0.55177E+00    rms(broyden)= 0.55120E+00
  rms(prec ) = 0.56297E+00
  weight for this iteration     100.00

 eigenvalues of (default mixing * dielectric matrix)
  average eigenvalue GAMMA=   1.4423
  7.5291  2.6517  0.9671  0.8511  0.8511  0.6786  0.6786  0.4358  0.4358  0.4137
  0.3732

 Free energy of the ion-electron system (eV)
  ---------------------------------------------------
  alpha Z        PSCENC =        98.45612685
  Ewald energy   TEWEN  =    246865.01612377
  -Hartree energ DENC   =   -311489.72258330
  -exchange      EXHF   =         0.00000000
  -V(xc)+E(xc)   XCENC  =      2313.16758956
  PAW double counting   =     66336.73831003   -71816.09561509
  entropy T*S    EENTRO =         0.00000000
  eigenvalues    EBANDS =     -3346.56010308
  atomic energy  EATOM  =     70937.71481755
  Solvation  Ediel_sol  =         0.00000000
  ---------------------------------------------------
  free energy    TOTEN  =      -101.28533370 eV

  energy without entropy =     -101.28533370  energy(sigma->0) =     -101.28533370


--------------------------------------------------------------------------------------------------------




----------------------------------------- Iteration    1(  17)  ---------------------------------------


    POTLOK:  cpu time    1.1073: real time    1.1086
    SETDIJ:  cpu time    0.0260: real time    0.0265
     EDDAV:  cpu time   80.9872: real time   81.2103
       DOS:  cpu time    0.0002: real time    0.0002
    CHARGE:  cpu time    1.5392: real time    1.5410
    MIXING:  cpu time    0.0594: real time    0.0594
    --------------------------------------------
      LOOP:  cpu time   83.7231: real time   83.9692

 eigenvalue-minimisations  :  2136
 total energy-change (2. order) :-0.1168425E+02  (-0.8816302E+00)
 number of electron     561.0001603 magnetization      24.3096662
 augmentation part      358.6433671 magnetization      19.7309825

 Broyden mixing:
  rms(total) = 0.40496E+00    rms(broyden)= 0.40452E+00
  rms(prec ) = 0.41236E+00
  weight for this iteration     100.00

 eigenvalues of (default mixing * dielectric matrix)
  average eigenvalue GAMMA=   1.5177
  8.6240  2.9213  1.0416  1.0416  0.7853  0.7853  0.7927  0.6192  0.4540  0.3940
  0.3940  0.3596

 Free energy of the ion-electron system (eV)
  ---------------------------------------------------
  alpha Z        PSCENC =        98.45612685
  Ewald energy   TEWEN  =    246865.01612377
  -Hartree energ DENC   =   -311448.26934162
  -exchange      EXHF   =         0.00000000
  -V(xc)+E(xc)   XCENC  =      2303.33234885
  PAW double counting   =     66257.04401245   -71726.69701718
  entropy T*S    EENTRO =         0.00000000
  eigenvalues    EBANDS =     -3399.56665325
  atomic energy  EATOM  =     70937.71481755
  Solvation  Ediel_sol  =         0.00000000
  ---------------------------------------------------
  free energy    TOTEN  =      -112.96958257 eV

  energy without entropy =     -112.96958257  energy(sigma->0) =     -112.96958257


--------------------------------------------------------------------------------------------------------




----------------------------------------- Iteration    1(  18)  ---------------------------------------


    POTLOK:  cpu time    1.1124: real time    1.1145
    SETDIJ:  cpu time    0.0255: real time    0.0261
     EDDAV:  cpu time   82.0615: real time   82.3055
       DOS:  cpu time    0.0002: real time    0.0002
    CHARGE:  cpu time    1.5164: real time    1.5245
    MIXING:  cpu time    0.0646: real time    0.0646
    --------------------------------------------
      LOOP:  cpu time   84.7838: real time   85.0414

 eigenvalue-minimisations  :  2168
 total energy-change (2. order) :-0.1088019E+02  (-0.4931696E+00)
 number of electron     561.0001605 magnetization      19.8110181
 augmentation part      359.1429692 magnetization      17.9819717

 Broyden mixing:
  rms(total) = 0.33810E+00    rms(broyden)= 0.33770E+00
  rms(prec ) = 0.34355E+00
  weight for this iteration     100.00

 eigenvalues of (default mixing * dielectric matrix)
  average eigenvalue GAMMA=   1.5414
  9.5223  3.0177  1.0510  1.0510  1.0960  0.7420  0.7420  0.7122  0.5634  0.4063
  0.4063  0.3782  0.3505

 Free energy of the ion-electron system (eV)
  ---------------------------------------------------
  alpha Z        PSCENC =        98.45612685
  Ewald energy   TEWEN  =    246865.01612377
  -Hartree energ DENC   =   -311412.92942866
  -exchange      EXHF   =         0.00000000
  -V(xc)+E(xc)   XCENC  =      2293.35661021
  PAW double counting   =     66222.90265177   -71689.53736988
  entropy T*S    EENTRO =        -0.00000000
  eigenvalues    EBANDS =     -3438.82929959
  atomic energy  EATOM  =     70937.71481755
  Solvation  Ediel_sol  =         0.00000000
  ---------------------------------------------------
  free energy    TOTEN  =      -123.84976796 eV

  energy without entropy =     -123.84976796  energy(sigma->0) =     -123.84976796


--------------------------------------------------------------------------------------------------------




----------------------------------------- Iteration    1(  19)  ---------------------------------------


    POTLOK:  cpu time    1.1092: real time    1.1100
    SETDIJ:  cpu time    0.0259: real time    0.0265
     EDDAV:  cpu time   79.9868: real time   80.6775
       DOS:  cpu time    0.0002: real time    0.0002
    CHARGE:  cpu time    1.5258: real time    1.5289
    MIXING:  cpu time    0.0704: real time    0.0704
    --------------------------------------------
      LOOP:  cpu time   82.7217: real time   83.4196

 eigenvalue-minimisations  :  2104
 total energy-change (2. order) :-0.6300005E+01  (-0.2018667E+00)
 number of electron     561.0001605 magnetization      15.7342335
 augmentation part      359.1327594 magnetization      14.4053069

 Broyden mixing:
  rms(total) = 0.25958E+00    rms(broyden)= 0.25952E+00
  rms(prec ) = 0.26339E+00
  weight for this iteration     100.00

 eigenvalues of (default mixing * dielectric matrix)
  average eigenvalue GAMMA=   1.5623
 10.0427  3.2078  1.2522  1.2522  0.9603  0.9603  0.7668  0.7668  0.6242  0.4999
  0.4088  0.4088  0.3696  0.3521

 Free energy of the ion-electron system (eV)
  ---------------------------------------------------
  alpha Z        PSCENC =        98.45612685
  Ewald energy   TEWEN  =    246865.01612377
  -Hartree energ DENC   =   -311411.46341756
  -exchange      EXHF   =         0.00000000
  -V(xc)+E(xc)   XCENC  =      2287.83970551
  PAW double counting   =     66255.49955065   -71725.60031532
  entropy T*S    EENTRO =         0.00000000
  eigenvalues    EBANDS =     -3437.61236474
  atomic energy  EATOM  =     70937.71481755
  Solvation  Ediel_sol  =         0.00000000
  ---------------------------------------------------
  free energy    TOTEN  =      -130.14977328 eV

  energy without entropy =     -130.14977328  energy(sigma->0) =     -130.14977328


--------------------------------------------------------------------------------------------------------




----------------------------------------- Iteration    1(  20)  ---------------------------------------


    POTLOK:  cpu time    1.1086: real time    1.1108
    SETDIJ:  cpu time    0.0259: real time    0.0265
     EDDAV:  cpu time   79.4137: real time   79.6032
       DOS:  cpu time    0.0002: real time    0.0002
    CHARGE:  cpu time    1.5357: real time    1.5444
    MIXING:  cpu time    0.0760: real time    0.0760
    --------------------------------------------
      LOOP:  cpu time   82.1634: real time   82.3670

 eigenvalue-minimisations  :  2080
 total energy-change (2. order) :-0.7117050E+01  (-0.1235899E+00)
 number of electron     561.0001605 magnetization      12.3639383
 augmentation part      359.1152632 magnetization      11.3542495

 Broyden mixing:
  rms(total) = 0.19791E+00    rms(broyden)= 0.19788E+00
  rms(prec ) = 0.20166E+00
  weight for this iteration     100.00

 eigenvalues of (default mixing * dielectric matrix)
  average eigenvalue GAMMA=   1.6039
 10.5496  3.6076  1.8355  1.2316  1.0196  1.0196  0.7653  0.7653  0.6432  0.6432
  0.4164  0.4164  0.4168  0.3802  0.3482

 Free energy of the ion-electron system (eV)
  ---------------------------------------------------
  alpha Z        PSCENC =        98.45612685
  Ewald energy   TEWEN  =    246865.01612377
  -Hartree energ DENC   =   -311393.32565781
  -exchange      EXHF   =         0.00000000
  -V(xc)+E(xc)   XCENC  =      2281.15762912
  PAW double counting   =     66263.97422954   -71737.30606088
  entropy T*S    EENTRO =         0.00000000
  eigenvalues    EBANDS =     -3452.95403180
  atomic energy  EATOM  =     70937.71481755
  Solvation  Ediel_sol  =         0.00000000
  ---------------------------------------------------
  free energy    TOTEN  =      -137.26682366 eV

  energy without entropy =     -137.26682366  energy(sigma->0) =     -137.26682366


--------------------------------------------------------------------------------------------------------




----------------------------------------- Iteration    1(  21)  ---------------------------------------


    POTLOK:  cpu time    1.1106: real time    1.1122
    SETDIJ:  cpu time    0.0258: real time    0.0265
     EDDAV:  cpu time   77.9125: real time   78.1109
       DOS:  cpu time    0.0002: real time    0.0002
    CHARGE:  cpu time    1.5461: real time    1.5485
    MIXING:  cpu time    0.0841: real time    0.0841
    --------------------------------------------
      LOOP:  cpu time   80.6825: real time   80.8884

 eigenvalue-minimisations  :  2032
 total energy-change (2. order) :-0.6676169E+01  (-0.6301894E-01)
 number of electron     561.0001606 magnetization       9.4654674
 augmentation part      359.2499576 magnetization       8.5859652

 Broyden mixing:
  rms(total) = 0.15244E+00    rms(broyden)= 0.15242E+00
  rms(prec ) = 0.15593E+00
  weight for this iteration     100.00

 eigenvalues of (default mixing * dielectric matrix)
  average eigenvalue GAMMA=   1.6474
 11.0284  4.0562  2.3007  1.1255  1.1255  0.9226  0.9226  0.8023  0.8023  0.7197
  0.5959  0.4143  0.4143  0.3891  0.3891  0.3489

 Free energy of the ion-electron system (eV)
  ---------------------------------------------------
  alpha Z        PSCENC =        98.45612685
  Ewald energy   TEWEN  =    246865.01612377
  -Hartree energ DENC   =   -311360.75814076
  -exchange      EXHF   =         0.00000000
  -V(xc)+E(xc)   XCENC  =      2274.37801739
  PAW double counting   =     66248.33431175   -71722.43343337
  entropy T*S    EENTRO =         0.00000000
  eigenvalues    EBANDS =     -3484.65081588
  atomic energy  EATOM  =     70937.71481755
  Solvation  Ediel_sol  =         0.00000000
  ---------------------------------------------------
  free energy    TOTEN  =      -143.94299269 eV

  energy without entropy =     -143.94299269  energy(sigma->0) =     -143.94299269


--------------------------------------------------------------------------------------------------------




----------------------------------------- Iteration    1(  22)  ---------------------------------------


    POTLOK:  cpu time    1.1090: real time    1.1112
    SETDIJ:  cpu time    0.0263: real time    0.0269
     EDDAV:  cpu time   77.4207: real time   77.6247
       DOS:  cpu time    0.0002: real time    0.0002
    CHARGE:  cpu time    1.5263: real time    1.5278
    MIXING:  cpu time    0.0888: real time    0.0888
    --------------------------------------------
      LOOP:  cpu time   80.1746: real time   80.3853

 eigenvalue-minimisations  :  2016
 total energy-change (2. order) :-0.4916274E+01  (-0.2628783E-01)
 number of electron     561.0001606 magnetization       6.8025342
 augmentation part      359.2343799 magnetization       5.8795863

 Broyden mixing:
  rms(total) = 0.11286E+00    rms(broyden)= 0.11285E+00
  rms(prec ) = 0.11670E+00
  weight for this iteration     100.00

 eigenvalues of (default mixing * dielectric matrix)
  average eigenvalue GAMMA=   1.6891
 11.5765  4.6034  2.5586  1.3012  1.3012  0.9793  0.9793  0.7385  0.7385  0.7285
  0.7285  0.5300  0.4147  0.4147  0.3863  0.3863  0.3497

 Free energy of the ion-electron system (eV)
  ---------------------------------------------------
  alpha Z        PSCENC =        98.45612685
  Ewald energy   TEWEN  =    246865.01612377
  -Hartree energ DENC   =   -311339.23339964
  -exchange      EXHF   =         0.00000000
  -V(xc)+E(xc)   XCENC  =      2269.47955095
  PAW double counting   =     66260.18759856   -71736.22587918
  entropy T*S    EENTRO =         0.00000000
  eigenvalues    EBANDS =     -3504.25420573
  atomic energy  EATOM  =     70937.71481755
  Solvation  Ediel_sol  =         0.00000000
  ---------------------------------------------------
  free energy    TOTEN  =      -148.85926686 eV

  energy without entropy =     -148.85926686  energy(sigma->0) =     -148.85926686


--------------------------------------------------------------------------------------------------------




----------------------------------------- Iteration    1(  23)  ---------------------------------------


    POTLOK:  cpu time    1.1079: real time    1.1141
    SETDIJ:  cpu time    0.0209: real time    0.0266
     EDDAV:  cpu time   77.2942: real time   77.9821
       DOS:  cpu time    0.0002: real time    0.0002
    CHARGE:  cpu time    1.5537: real time    1.5549
    MIXING:  cpu time    0.0954: real time    0.0955
    --------------------------------------------
      LOOP:  cpu time   80.0757: real time   80.7794

 eigenvalue-minimisations  :  2016
 total energy-change (2. order) :-0.3094166E+01  (-0.1301836E-01)
 number of electron     561.0001605 magnetization       5.0561202
 augmentation part      359.0976056 magnetization       4.1566933

 Broyden mixing:
  rms(total) = 0.72389E-01    rms(broyden)= 0.72379E-01
  rms(prec ) = 0.74807E-01
  weight for this iteration     100.00

 eigenvalues of (default mixing * dielectric matrix)
  average eigenvalue GAMMA=   1.7319
 12.0694  5.3519  2.8031  1.4694  1.0603  1.0603  1.0446  1.0446  0.7572  0.7572
  0.6615  0.6615  0.4777  0.4155  0.4155  0.3875  0.3875  0.3496

 Free energy of the ion-electron system (eV)
  ---------------------------------------------------
  alpha Z        PSCENC =        98.45612685
  Ewald energy   TEWEN  =    246865.01612377
  -Hartree energ DENC   =   -311321.09598089
  -exchange      EXHF   =         0.00000000
  -V(xc)+E(xc)   XCENC  =      2266.58418071
  PAW double counting   =     66264.33325829   -71743.06190387
  entropy T*S    EENTRO =         0.00000000
  eigenvalues    EBANDS =     -3519.90005490
  atomic energy  EATOM  =     70937.71481755
  Solvation  Ediel_sol  =         0.00000000
  ---------------------------------------------------
  free energy    TOTEN  =      -151.95343247 eV

  energy without entropy =     -151.95343247  energy(sigma->0) =     -151.95343247


--------------------------------------------------------------------------------------------------------




----------------------------------------- Iteration    1(  24)  ---------------------------------------


    POTLOK:  cpu time    1.1096: real time    1.1113
    SETDIJ:  cpu time    0.0258: real time    0.0264
     EDDAV:  cpu time   72.7841: real time   72.9912
       DOS:  cpu time    0.0002: real time    0.0002
    CHARGE:  cpu time    1.5259: real time    1.5295
    MIXING:  cpu time    0.1068: real time    0.1068
    --------------------------------------------
      LOOP:  cpu time   75.5556: real time   75.7711

 eigenvalue-minimisations  :  1864
 total energy-change (2. order) :-0.1402832E+01  (-0.6638202E-02)
 number of electron     561.0001604 magnetization       4.0294483
 augmentation part      358.9391983 magnetization       3.1617161

 Broyden mixing:
  rms(total) = 0.52583E-01    rms(broyden)= 0.52574E-01
  rms(prec ) = 0.54464E-01
  weight for this iteration     100.00

 eigenvalues of (default mixing * dielectric matrix)
  average eigenvalue GAMMA=   1.7595
 12.4513  5.9342  2.9285  1.7122  1.2671  1.2671  0.9571  0.9571  0.7344  0.7344
  0.7933  0.6904  0.5980  0.3495  0.4139  0.4139  0.4434  0.3819  0.4019

 Free energy of the ion-electron system (eV)
  ---------------------------------------------------
  alpha Z        PSCENC =        98.45612685
  Ewald energy   TEWEN  =    246865.01612377
  -Hartree energ DENC   =   -311302.30156965
  -exchange      EXHF   =         0.00000000
  -V(xc)+E(xc)   XCENC  =      2265.32201412
  PAW double counting   =     66256.43739735   -71736.98989460
  entropy T*S    EENTRO =         0.00000000
  eigenvalues    EBANDS =     -3537.01127971
  atomic energy  EATOM  =     70937.71481755
  Solvation  Ediel_sol  =         0.00000000
  ---------------------------------------------------
  free energy    TOTEN  =      -153.35626430 eV

  energy without entropy =     -153.35626430  energy(sigma->0) =     -153.35626430


--------------------------------------------------------------------------------------------------------




----------------------------------------- Iteration    1(  25)  ---------------------------------------


    POTLOK:  cpu time    1.1137: real time    1.1144
    SETDIJ:  cpu time    0.0262: real time    0.0268
     EDDAV:  cpu time   73.6170: real time   73.8302
       DOS:  cpu time    0.0002: real time    0.0002
    CHARGE:  cpu time    1.5224: real time    1.5234
    MIXING:  cpu time    0.1085: real time    0.1097
    --------------------------------------------
      LOOP:  cpu time   76.3914: real time   76.6110

 eigenvalue-minimisations  :  1896
 total energy-change (2. order) :-0.4838831E+00  (-0.2722066E-02)
 number of electron     561.0001605 magnetization       3.4856514
 augmentation part      358.9897584 magnetization       2.6472773

 Broyden mixing:
  rms(total) = 0.40032E-01    rms(broyden)= 0.40026E-01
  rms(prec ) = 0.41663E-01
  weight for this iteration     100.00

 eigenvalues of (default mixing * dielectric matrix)
  average eigenvalue GAMMA=   1.7493
 12.5654  6.2655  3.0729  1.9269  1.2689  1.2689  0.9960  0.9960  0.9112  0.7346
  0.7346  0.6733  0.6627  0.5400  0.3493  0.4187  0.4187  0.3843  0.3991  0.3991

 Free energy of the ion-electron system (eV)
  ---------------------------------------------------
  alpha Z        PSCENC =        98.45612685
  Ewald energy   TEWEN  =    246865.01612377
  -Hartree energ DENC   =   -311285.99172513
  -exchange      EXHF   =         0.00000000
  -V(xc)+E(xc)   XCENC  =      2264.64469682
  PAW double counting   =     66248.82396108   -71728.23791325
  entropy T*S    EENTRO =         0.00000000
  eigenvalues    EBANDS =     -3554.26623510
  atomic energy  EATOM  =     70937.71481755
  Solvation  Ediel_sol  =         0.00000000
  ---------------------------------------------------
  free energy    TOTEN  =      -153.84014741 eV

  energy without entropy =     -153.84014741  energy(sigma->0) =     -153.84014741


--------------------------------------------------------------------------------------------------------




----------------------------------------- Iteration    1(  26)  ---------------------------------------


    POTLOK:  cpu time    1.1083: real time    1.1106
    SETDIJ:  cpu time    0.0262: real time    0.0268
     EDDAV:  cpu time   75.4940: real time   75.6936
       DOS:  cpu time    0.0002: real time    0.0002
    CHARGE:  cpu time    1.5189: real time    1.5207
    MIXING:  cpu time    0.1169: real time    0.1170
    --------------------------------------------
      LOOP:  cpu time   78.2678: real time   78.4748

 eigenvalue-minimisations  :  1960
 total energy-change (2. order) :-0.1482190E+00  (-0.9937004E-03)
 number of electron     561.0001605 magnetization       2.9269389
 augmentation part      359.0586861 magnetization       2.0840689

 Broyden mixing:
  rms(total) = 0.26152E-01    rms(broyden)= 0.26149E-01
  rms(prec ) = 0.27184E-01
  weight for this iteration     100.00

 eigenvalues of (default mixing * dielectric matrix)
  average eigenvalue GAMMA=   1.7676
 12.6756  6.6684  3.3551  2.2889  1.3526  1.0746  1.0746  1.0037  1.0037  0.9850
  0.7294  0.7294  0.6823  0.6401  0.4835  0.3494  0.4126  0.4126  0.3870  0.3870
  0.4238

 Free energy of the ion-electron system (eV)
  ---------------------------------------------------
  alpha Z        PSCENC =        98.45612685
  Ewald energy   TEWEN  =    246865.01612377
  -Hartree energ DENC   =   -311277.95429267
  -exchange      EXHF   =         0.00000000
  -V(xc)+E(xc)   XCENC  =      2264.30931159
  PAW double counting   =     66250.17972504   -71728.21580556
  entropy T*S    EENTRO =         0.00000000
  eigenvalues    EBANDS =     -3563.49437298
  atomic energy  EATOM  =     70937.71481755
  Solvation  Ediel_sol  =         0.00000000
  ---------------------------------------------------
  free energy    TOTEN  =      -153.98836640 eV

  energy without entropy =     -153.98836640  energy(sigma->0) =     -153.98836640


--------------------------------------------------------------------------------------------------------




----------------------------------------- Iteration    1(  27)  ---------------------------------------


    POTLOK:  cpu time    1.1109: real time    1.1126
    SETDIJ:  cpu time    0.0257: real time    0.0262
     EDDAV:  cpu time   77.0363: real time   77.7468
       DOS:  cpu time    0.0002: real time    0.0002
    CHARGE:  cpu time    1.5167: real time    1.5244
    MIXING:  cpu time    0.1173: real time    0.1245
    --------------------------------------------
      LOOP:  cpu time   79.8104: real time   80.5407

 eigenvalue-minimisations  :  2016
 total energy-change (2. order) :-0.1058917E+00  (-0.9150709E-03)
 number of electron     561.0001605 magnetization       2.5088590
 augmentation part      359.1088823 magnetization       1.6594415

 Broyden mixing:
  rms(total) = 0.22588E-01    rms(broyden)= 0.22586E-01
  rms(prec ) = 0.23349E-01
  weight for this iteration     100.00

 eigenvalues of (default mixing * dielectric matrix)
  average eigenvalue GAMMA=   1.7654
 12.7287  6.9292  3.5752  2.4463  1.4118  1.2083  1.2083  1.1051  0.9730  0.9730
  0.7342  0.7342  0.6800  0.6686  0.6267  0.3494  0.4532  0.4134  0.4134  0.3871
  0.3871  0.4326

 Free energy of the ion-electron system (eV)
  ---------------------------------------------------
  alpha Z        PSCENC =        98.45612685
  Ewald energy   TEWEN  =    246865.01612377
  -Hartree energ DENC   =   -311273.21099221
  -exchange      EXHF   =         0.00000000
  -V(xc)+E(xc)   XCENC  =      2264.12581333
  PAW double counting   =     66255.33287988   -71732.38509899
  entropy T*S    EENTRO =         0.00000000
  eigenvalues    EBANDS =     -3569.14392831
  atomic energy  EATOM  =     70937.71481755
  Solvation  Ediel_sol  =         0.00000000
  ---------------------------------------------------
  free energy    TOTEN  =      -154.09425812 eV

  energy without entropy =     -154.09425812  energy(sigma->0) =     -154.09425812


--------------------------------------------------------------------------------------------------------




----------------------------------------- Iteration    1(  28)  ---------------------------------------


    POTLOK:  cpu time    1.1075: real time    1.1090
    SETDIJ:  cpu time    0.0257: real time    0.0265
     EDDAV:  cpu time   73.3160: real time   73.5042
       DOS:  cpu time    0.0002: real time    0.0002
    CHARGE:  cpu time    1.5178: real time    1.5191
    MIXING:  cpu time    0.1320: real time    0.1321
    --------------------------------------------
      LOOP:  cpu time   76.1027: real time   76.2972

 eigenvalue-minimisations  :  1888
 total energy-change (2. order) :-0.1119195E+00  (-0.4243682E-03)
 number of electron     561.0001605 magnetization       2.1803401
 augmentation part      359.0783589 magnetization       1.3281451

 Broyden mixing:
  rms(total) = 0.17039E-01    rms(broyden)= 0.17037E-01
  rms(prec ) = 0.17643E-01
  weight for this iteration     100.00

 eigenvalues of (default mixing * dielectric matrix)
[...]
  augment  4803.86712  4804.41433  4805.50516     0.88522    -0.69653    -0.85417
  Kinetic  4593.41263  4594.29681  4595.47500     1.17395    -0.53194    -0.88100
  Fock        0.00000     0.00000     0.00000     0.00000     0.00000     0.00000
  -------------------------------------------------------------------------------------
  Total     -14.66646   -14.85021   -14.75715     0.09063    -0.09328     0.01025
  in kB      -1.21626    -1.23150    -1.22378     0.00752    -0.00774     0.00085
  external pressure =       -1.22 kB  Pullay stress =        0.00 kB


 VOLUME and BASIS-vectors are now :
 -----------------------------------------------------------------------------
  energy-cutoff  :      295.45
  volume of cell :    19320.12
      direct lattice vectors                 reciprocal lattice vectors
    26.833044000  0.000000000  0.000000000     0.037267483  0.000000000  0.000000000
     0.000000000 26.833044000  0.000000000     0.000000000  0.037267483  0.000000000
     0.000000000  0.000000000 26.833044000     0.000000000  0.000000000  0.037267483

  length of vectors
    26.833044000 26.833044000 26.833044000     0.037267483  0.037267483  0.037267483


 FORCES acting on ions
    electron-ion (+dipol)            ewald-force                    non-local-force                 convergence-correction
 -----------------------------------------------------------------------------------------------
   0.459E+03 0.345E+03 0.252E+04   -.458E+03 -.345E+03 -.252E+04   -.121E+01 -.264E+00 -.816E+01   -.686E-02 -.465E-02 -.472E-02
   0.274E+03 -.125E+04 0.221E+04   -.272E+03 0.125E+04 -.221E+04   -.157E+01 0.301E+01 -.441E+01   -.208E-02 -.717E-02 -.931E-03
   -.885E+03 -.112E+03 0.235E+04   0.884E+03 0.111E+03 -.234E+04   0.128E+01 0.106E+01 -.419E+01   0.163E-02 -.519E-02 -.573E-02
   0.158E+04 -.161E+03 0.195E+04   -.158E+04 0.160E+03 -.194E+04   -.251E+01 0.537E+00 -.325E+01   -.387E-02 -.686E-02 0.338E-03
   -.338E+03 0.141E+04 0.199E+04   0.338E+03 -.140E+04 -.199E+04   -.576E+00 -.309E+01 -.229E+01   -.262E-02 -.347E-02 -.191E-02
   0.128E+04 0.149E+04 0.159E+04   -.128E+04 -.148E+04 -.158E+04   -.175E+01 -.257E+01 -.422E+01   -.372E-02 -.301E-02 0.719E-03
   -.938E+03 -.164E+04 0.174E+04   0.937E+03 0.163E+04 -.173E+04   0.110E+01 0.495E+01 -.290E+01   -.207E-02 -.182E-04 -.282E-02
   -.203E+04 -.437E+03 0.160E+04   0.203E+04 0.436E+03 -.160E+04   0.612E+01 0.165E+01 -.553E+01   0.267E-02 0.421E-03 -.170E-02
   0.124E+04 -.169E+04 0.145E+04   -.124E+04 0.169E+04 -.145E+04   -.224E+01 0.314E+01 -.317E+01   -.396E-02 -.410E-02 -.278E-02
   0.288E+03 0.352E+03 0.133E+04   -.288E+03 -.351E+03 -.133E+04   -.499E+00 -.656E+00 -.189E+01   0.756E-03 -.115E-01 -.116E-02
   0.235E+04 -.637E+03 0.926E+03   -.235E+04 0.635E+03 -.923E+03   -.742E+01 0.201E+01 -.302E+01   0.170E-02 0.963E-03 0.114E-02
   -.170E+04 0.102E+04 0.147E+04   0.170E+04 -.102E+04 -.147E+04   0.304E+01 -.146E+01 -.165E+01   0.400E-02 -.865E-03 -.510E-02
   0.215E+04 0.107E+04 0.823E+03   -.214E+04 -.107E+04 -.822E+03   -.511E+01 -.114E+01 -.139E+01   -.174E-02 0.845E-03 0.496E-02
   -.912E+03 0.217E+04 0.841E+03   0.909E+03 -.216E+04 -.839E+03   0.329E+01 -.847E+01 -.193E+01   0.349E-02 0.185E-02 0.233E-02
   0.500E+03 0.235E+04 0.697E+03   -.497E+03 -.235E+04 -.698E+03   -.243E+01 -.771E+01 0.103E+01   0.414E-03 0.398E-02 0.185E-02
   0.634E+02 -.131E+04 0.981E+03   -.636E+02 0.131E+04 -.981E+03   0.152E+00 -.240E+00 0.902E-01   -.123E-02 -.265E-02 -.525E-02
   -.105E+04 -.880E+02 0.862E+03   0.105E+04 0.878E+02 -.861E+03   0.152E+01 0.250E+00 -.107E+01   -.299E-02 -.266E-03 -.625E-03
   0.129E+04 -.166E+03 0.517E+03   -.129E+04 0.165E+03 -.517E+03   -.212E+01 0.365E+00 -.696E+00   0.356E-02 0.334E-02 -.171E-03
   -.393E+03 0.172E+04 0.290E+03   0.392E+03 -.171E+04 -.288E+03   0.998E+00 -.656E+00 -.166E+01   0.239E-02 -.257E-02 -.494E-03
   0.100E+04 0.184E+04 0.199E+03   -.100E+04 -.184E+04 -.199E+03   -.510E+00 -.615E+00 0.271E+00   -.211E-02 0.155E-02 0.103E-02
   -.205E+04 -.134E+04 0.562E+03   0.205E+04 0.134E+04 -.562E+03   0.346E+01 0.952E+00 0.165E+00   0.294E-02 0.326E-02 -.247E-02
   0.746E+03 -.221E+04 0.600E+03   -.746E+03 0.221E+04 -.599E+03   -.433E+00 0.296E+01 -.201E+00   -.813E-02 0.158E-02 -.118E-01
   0.197E+04 -.155E+04 -.773E+02   -.197E+04 0.155E+04 0.772E+02   -.326E+01 0.242E+01 0.789E-01   -.373E-02 0.158E-02 0.587E-03
   -.246E+04 0.235E+03 0.380E+03   0.246E+04 -.234E+03 -.379E+03   0.381E+01 -.766E+00 -.699E+00   -.428E-03 0.165E-02 0.515E-03
   -.881E+03 -.900E+03 -.311E+03   0.880E+03 0.899E+03 0.310E+03   0.132E+01 0.781E+00 0.285E+00   -.291E-02 0.445E-03 0.638E-03
   0.770E+02 0.376E+03 0.111E+02   -.774E+02 -.376E+03 -.115E+02   0.395E+00 0.169E+00 0.406E+00   0.348E-02 0.597E-02 -.241E-03
   -.510E+02 -.241E+04 -.195E+03   0.504E+02 0.240E+04 0.194E+03   0.540E+00 0.107E+02 0.940E+00   -.160E-01 -.520E-02 0.193E-01
   -.167E+04 0.184E+04 0.526E+02   0.167E+04 -.184E+04 -.538E+02   0.275E+01 -.445E+01 0.116E+01   0.162E-02 0.342E-02 -.111E-02
   -.176E+04 -.184E+04 -.688E+03   0.175E+04 0.184E+04 0.687E+03   0.514E+01 0.687E+01 0.156E+01   0.340E-02 0.140E-02 -.108E-02
   0.110E+04 0.598E+03 -.790E+03   -.109E+04 -.597E+03 0.789E+03   -.166E+01 -.196E+00 0.149E+01   -.351E-02 0.491E-02 0.526E-02
   -.227E+04 0.908E+03 -.878E+03   0.226E+04 -.906E+03 0.875E+03   0.723E+01 -.234E+01 0.268E+01   0.256E-02 -.363E-02 -.174E-02
   -.228E+04 -.563E+03 -.891E+03   0.227E+04 0.561E+03 0.889E+03   0.365E+01 0.142E+01 0.125E+01   0.211E-02 0.108E-02 0.144E-02
   0.612E+03 -.100E+04 -.550E+03   -.611E+03 0.999E+03 0.550E+03   -.850E+00 0.927E+00 0.849E+00   0.481E-02 0.322E-02 -.154E-03
   -.821E+03 -.220E+04 0.692E+03   0.820E+03 0.220E+04 -.691E+03   0.497E+00 0.331E+01 -.159E+01   -.635E-02 -.260E-03 0.328E-02
   0.114E+03 0.208E+04 -.743E+03   -.113E+03 -.208E+04 0.743E+03   -.355E+00 -.297E+01 0.570E+00   -.214E-03 -.248E-02 0.246E-02
   -.115E+04 0.755E+03 -.480E+03   0.115E+04 -.755E+03 0.479E+03   0.170E+01 -.284E+00 0.935E+00   0.468E-03 0.778E-03 0.105E-02
   0.184E+04 0.173E+04 -.337E+03   -.184E+04 -.172E+04 0.338E+03   -.382E+01 -.623E+01 -.497E+00   0.283E-02 0.934E-03 0.637E-02
   0.247E+04 -.425E+02 -.355E+03   -.247E+04 0.436E+02 0.354E+03   -.379E+01 -.110E+01 0.294E+00   0.536E-02 0.113E-02 0.143E-02
   0.115E+04 -.203E+04 -.113E+04   -.114E+04 0.202E+04 0.113E+04   -.312E+01 0.632E+01 0.284E+01   0.749E-02 0.357E-02 -.509E-02
   0.929E+03 0.186E+04 -.148E+04   -.927E+03 -.186E+04 0.147E+04   -.173E+01 -.617E+01 0.188E+01   0.598E-03 0.134E-02 0.370E-02
   -.411E+03 -.197E+04 -.120E+04   0.412E+03 0.197E+04 0.120E+04   -.366E+00 0.111E+01 -.135E+00   0.539E-02 0.350E-02 0.864E-02
   -.199E+03 0.128E+03 -.137E+04   0.199E+03 -.128E+03 0.137E+04   0.299E+00 -.122E+00 0.193E+01   0.181E-02 0.133E-02 0.153E-02
   -.986E+03 0.203E+04 -.118E+04   0.985E+03 -.203E+04 0.118E+04   0.130E+01 -.722E+01 0.706E+00   0.206E-02 -.100E-02 0.970E-03
   -.123E+04 -.110E+04 -.189E+04   0.123E+04 0.110E+04 0.189E+04   0.187E+01 0.133E+01 0.340E+01   0.111E-02 0.937E-04 -.626E-03
   -.153E+04 0.444E+03 -.194E+04   0.153E+04 -.443E+03 0.194E+04   0.227E+01 -.910E+00 0.312E+01   0.198E-02 0.370E-02 -.121E-02
   0.202E+04 0.529E+03 -.154E+04   -.201E+04 -.527E+03 0.153E+04   -.617E+01 -.124E+01 0.494E+01   0.290E-02 0.280E-02 0.121E-02
   0.178E+04 -.911E+03 -.152E+04   -.178E+04 0.909E+03 0.152E+04   -.297E+01 0.198E+01 0.210E+01   0.317E-02 0.342E-02 0.118E-02
   -.192E+03 0.149E+04 -.206E+04   0.190E+03 -.149E+04 0.205E+04   0.134E+01 -.152E+01 0.471E+01   0.373E-02 0.185E-02 0.455E-03
   0.406E+03 -.125E+04 -.214E+04   -.405E+03 0.125E+04 0.214E+04   -.223E+00 0.173E+01 0.343E+01   0.498E-02 0.517E-02 0.361E-03
   -.424E+03 -.157E+03 -.257E+04   0.423E+03 0.157E+03 0.256E+04   0.938E+00 0.188E+00 0.826E+01   0.112E-02 0.206E-02 0.578E-03
   0.918E+03 0.214E+03 -.232E+04   -.916E+03 -.214E+03 0.231E+04   -.149E+01 -.437E+00 0.410E+01   0.734E-03 0.535E-02 -.215E-02
 -----------------------------------------------------------------------------------------------
   0.219E+01 0.263E+01 -.935E+00   -.250E-11 0.540E-12 -.955E-11   -.219E+01 -.271E+01 0.917E+00   0.128E-01 0.136E-01 0.122E-01
 
 
 POSITION                                       TOTAL-FORCE (eV/Angst)
 -----------------------------------------------------------------------------------
     12.57828     12.53903      8.66725         0.005758      0.008005      0.003351
     12.88427     14.83902      9.65068         0.001288      0.003447     -0.003504
     14.87376     13.25813      9.48387        -0.000272     -0.002882      0.000614
     10.72249     13.48199     10.10992         0.005083      0.007915     -0.000763
     14.07381     10.89666      9.83352         0.003197      0.007234      0.002246
     11.37340     11.04804     10.31056        -0.001452     -0.000081      0.001950
     15.18402     15.52913     10.62903        -0.001139      0.005628     -0.008030
     17.10023     13.90312     10.52280        -0.001659     -0.004345     -0.005088
     11.05888     15.75551     11.19324         0.006950      0.005233      0.003125
     12.96126     12.77239     11.01258         0.003742      0.000807      0.005854
      9.03165     14.40685     11.76126         0.002002      0.004166     -0.000085
     16.30210     11.53864     10.80583        -0.000566      0.001498      0.003839
      9.61742     11.94597     11.90749         0.005151      0.001138     -0.005689
     15.40748      9.27195     11.16266         0.002509     -0.005406     -0.006052
     12.87286      9.35504     11.29601         0.000373     -0.003474     -0.008724
     13.26552     15.11505     12.04708         0.003301      0.005904      0.003834
     15.22523     13.42384     11.93088        -0.001813      0.000642     -0.000288
     11.16578     13.69687     12.56276        -0.003745      0.005351      0.002309
     14.31573     10.96337     12.41155        -0.000782     -0.001268      0.000614
     11.77406     11.08398     12.75372         0.009067     -0.007214     -0.002592
     16.77520     15.33782     12.54707        -0.007090      0.002995      0.002200
     12.17485     17.09256     13.00725         0.000428     -0.010455      0.001156
     10.13173     15.73955     13.60504        -0.001164      0.000343      0.000651
     17.51038     12.85218     12.74787        -0.000160      0.000713     -0.000892
     14.86671     14.79545     14.04014         0.002466     -0.000346      0.008286
     13.32511     12.97660     13.39149        -0.003756     -0.000968      0.000518
     13.42234     18.74170     14.16242        -0.011326      0.001500     -0.018755
     16.65134     10.46768     13.06699         0.001964     -0.000107      0.005213
     16.36985     16.54618     14.71246        -0.000659     -0.001714      0.008456
     11.43182     12.66353     14.86487        -0.000528     -0.002680     -0.003566
     17.66553     11.72215     15.00348         0.002359      0.005335      0.000185
     17.10199     14.15686     14.88342        -0.000089      0.001772     -0.000416
     12.36094     14.98747     14.43344         0.003670     -0.006803      0.000963
     14.75375     16.99446     12.83886         0.007535     -0.001745      0.004333
     13.33836     10.93657     14.78215         0.002937     -0.000805     -0.001601
     15.51105     12.32608     14.20679         0.001287     -0.004360     -0.001262
      9.81456     11.00810     14.30113        -0.007258     -0.000839     -0.005795
      9.17355     13.44464     14.06935        -0.001594     -0.001418     -0.000677
     11.53122     17.03888     15.40031        -0.007041     -0.004892      0.008344
     11.41889     10.78200     16.38684        -0.001820     -0.001904     -0.000709
     13.98380     16.79366     15.31805        -0.005333      0.003847     -0.005471
     13.73932     13.32500     15.78391         0.000798      0.001680     -0.000801
     15.62778     10.42753     15.66893         0.002787      0.000029     -0.003786
     15.33783     15.09136     16.49081        -0.004067      0.002073      0.004909
     15.98225     12.65398     16.67344        -0.004645     -0.002679      0.001448
      9.55876     12.43959     16.33168        -0.000336      0.000207     -0.005684
     10.43705     14.75437     15.93876         0.001058     -0.001793      0.001362
     13.76880     11.30672     17.18271        -0.004892     -0.000485      0.001382
     12.73599     15.33797     16.89260         0.002146     -0.004160      0.007599
     14.14141     13.63628     18.12091        -0.002935      0.001607      0.003902
     11.81223     13.04110     17.33679        -0.001734     -0.006245      0.001587
 -----------------------------------------------------------------------------------
    total drift:                                0.018607     -0.069097     -0.005501


--------------------------------------------------------------------------------------------------------



  FREE ENERGIE OF THE ION-ELECTRON SYSTEM (eV)
  ---------------------------------------------------
  free  energy   TOTEN  =      -154.75279772 eV

  energy  without entropy=     -154.75279772  energy(sigma->0) =     -154.75279772
 
 d Force = 0.3968010E-03[ 0.245E-03, 0.549E-03]  d Energy = 0.4000455E-03-0.324E-05
 d Force =-0.2727467E+02[-0.273E+02,-0.273E+02]  d Ewald  =-0.2727468E+02 0.800E-05


--------------------------------------------------------------------------------------------------------


    POTLOK:  cpu time    1.1520: real time    1.1536


--------------------------------------------------------------------------------------------------------


 Conjugate gradient step on ions:
 trial-energy change:   -0.000400  1 .order   -0.000397   -0.000549   -0.000245
  (g-gl).g = 0.289E-03      g.g   = 0.335E-03  gl.gl    = 0.517E-03
 g(Force)  = 0.335E-03   g(Stress)= 0.000E+00 ortho     = 0.942E-05
 gamma     =   0.55996
 trial     =   1.61438
 opt step  =   2.91257  (harmonic =   2.91257) maximal distance =0.00624328
 next E    =  -154.752893   (d E  =  -0.00050)


--------------------------------------------------------------------------------------------------------


  
 reached required accuracy - stopping structural energy minimisation
     LOOP+:  cpu time  687.0258: real time  689.3206
    4ORBIT:  cpu time    0.0000: real time    0.0000
 


 total charge     
 
# of ion     s       p       d       tot
----------------------------------------
  1        0.473   0.198   9.247   9.918
  2        0.462   0.227   9.227   9.916
  3        0.436   0.270   9.218   9.924
  4        0.447   0.254   9.220   9.922
  5        0.447   0.270   9.216   9.933
  6        0.454   0.236   9.227   9.917
  7        0.438   0.237   9.233   9.908
  8        0.474   0.207   9.243   9.924
  9        0.455   0.239   9.228   9.923
 10        0.448   0.399   9.213  10.059
 11        0.475   0.202   9.242   9.919
 12        0.447   0.266   9.215   9.929
 13        0.456   0.222   9.229   9.907
 14        0.485   0.169   9.254   9.908
 15        0.475   0.173   9.254   9.902
 16        0.448   0.387   9.188  10.023
 17        0.447   0.408   9.208  10.063
 18        0.451   0.401   9.213  10.065
 19        0.439   0.367   9.197  10.002
 20        0.429   0.320   9.198   9.947
 21        0.455   0.258   9.205   9.919
 22        0.449   0.273   9.216   9.937
 23        0.442   0.259   9.219   9.921
 24        0.449   0.254   9.220   9.923
 25        0.448   0.409   9.198  10.054
 26        0.483   0.499   9.175  10.157
 27        0.491   0.122   9.273   9.885
 28        0.445   0.219   9.239   9.903
 29        0.464   0.209   9.250   9.924
 30        0.454   0.416   9.200  10.070
 31        0.474   0.208   9.239   9.921
 32        0.446   0.260   9.221   9.928
 33        0.445   0.398   9.206  10.050
 34        0.426   0.240   9.224   9.890
 35        0.424   0.296   9.218   9.938
 36        0.451   0.417   9.197  10.065
 37        0.452   0.199   9.250   9.901
 38        0.450   0.254   9.221   9.924
 39        0.456   0.211   9.237   9.905
 40        0.453   0.205   9.245   9.903
 41        0.463   0.313   9.199   9.976
 42        0.448   0.399   9.212  10.059
 43        0.451   0.194   9.253   9.897
 44        0.447   0.277   9.212   9.935
 45        0.443   0.256   9.223   9.923
 46        0.472   0.211   9.242   9.925
 47        0.442   0.257   9.215   9.914
 48        0.463   0.224   9.220   9.907
 49        0.451   0.262   9.215   9.928
 50        0.476   0.197   9.246   9.918
 51        0.441   0.260   9.225   9.926
------------------------------------------------
tot       23.140  13.909 470.385 507.434
 


 magnetization (x)
 
# of ion     s       p       d       tot
----------------------------------------
  1        0.001   0.001   0.011   0.014
  2        0.005   0.008   0.005   0.017
  3        0.001   0.005   0.000   0.007
  4        0.002   0.008   0.001   0.011
  5        0.010   0.001   0.004   0.014
  6        0.005   0.004  -0.000   0.009
  7        0.017   0.003   0.003   0.023
  8       -0.000   0.007   0.010   0.017
  9        0.015   0.007  -0.003   0.019
 10       -0.000  -0.001   0.012   0.011
 11        0.001  -0.000   0.010   0.010
 12        0.002   0.002   0.012   0.016
 13        0.000   0.007  -0.002   0.005
 14        0.002   0.005   0.002   0.009
 15        0.001   0.000   0.001   0.003
 16        0.001   0.003   0.009   0.013
 17       -0.000   0.001   0.010   0.011
 18       -0.000  -0.001   0.014   0.014
 19        0.000   0.000   0.011   0.011
 20       -0.000  -0.000   0.007   0.007
 21        0.001   0.006   0.006   0.012
 22       -0.000   0.004   0.004   0.008
 23        0.014   0.001   0.000   0.016
 24        0.007   0.003   0.001   0.011
 25       -0.000  -0.000   0.005   0.005
 26        0.000  -0.000  -0.000  -0.000
 27       -0.001   0.001   0.004   0.004
 28        0.020   0.002  -0.002   0.021
 29       -0.000   0.000   0.007   0.007
 30        0.000   0.000   0.011   0.011
 31        0.001  -0.000   0.010   0.011
 32       -0.000   0.006  -0.002   0.004
 33       -0.000  -0.000   0.010   0.009
 34       -0.000   0.000   0.005   0.005
 35        0.000   0.002   0.010   0.012
 36        0.000  -0.001   0.012   0.011
 37        0.007   0.005   0.003   0.015
 38        0.003   0.004  -0.001   0.006
 39        0.000   0.005   0.000   0.006
 40        0.014   0.002   0.003   0.019
 41        0.001  -0.000   0.003   0.004
 42       -0.000  -0.001   0.012   0.011
 43        0.010   0.006  -0.003   0.014
 44        0.008   0.003  -0.001   0.011
 45        0.001   0.007   0.001   0.009
 46       -0.000   0.005   0.008   0.012
 47        0.002   0.002   0.011   0.015
 48        0.005   0.007   0.003   0.014
 49        0.011   0.002   0.001   0.014
 50        0.001   0.001   0.010   0.011
 51        0.001   0.005   0.000   0.006
------------------------------------------------
tot        0.167   0.135   0.251   0.553
 

 total amount of memory used by VASP on root node   200575. kBytes
========================================================================

   base      :      30000. kBytes
   nonl-proj :      17836. kBytes
   fftplans  :      25636. kBytes
   grid      :      64857. kBytes
   one-center:        139. kBytes
   wavefun   :      62107. kBytes
 
  
  
 General timing and accounting informations for this job:
 ========================================================
  
                  Total CPU time used (sec):    18999.107
                            User time (sec):    18776.806
                          System time (sec):      222.302
                         Elapsed time (sec):    19073.742
  
                   Maximum memory used (kb):      307888.
                   Average memory used (kb):           0.
  
                          Minor page faults:     11357153
                          Major page faults:            2
                 Voluntary context switches:        13455
