 vasp.5.4.4.18Apr17-6-g9f103f2a35 (build Jan 23 2020 13:04:52) gamma-only       
  
 executed on           IFC91_ompi date 2020.12.30  14:58:03
 running on   44 total cores
 distrk:  each k-point on   44 cores,    1 groups
 distr:  one band on NCORES_PER_BAND=  11 cores,    4 groups


--------------------------------------------------------------------------------------------------------


 INCAR:
 POTCAR:    PAW_PBE Cu 22Jun2005                  
 POTCAR:    PAW_PBE Cu 22Jun2005                  
   VRHFIN =Cu: d10 p1                                                           
   LEXCH  = PE                                                                  
   EATOM  =  1390.9808 eV,  102.2342 Ry                                         
                                                                                
   TITEL  = PAW_PBE Cu 22Jun2005                                                
   LULTRA =        F    use ultrasoft PP ?                                      
   IUNSCR =        1    unscreen: 0-lin 1-nonlin 2-no                           
   RPACOR =    2.000    partial core radius                                     
   POMASS =   63.546; ZVAL   =   11.000    mass and valenz                      
   RCORE  =    2.300    outmost cutoff radius                                   
   RWIGS  =    2.200; RWIGS  =    1.164    wigner-seitz radius (au A)           
   ENMAX  =  295.446; ENMIN  =  221.585 eV                                      
   ICORE  =        3    local potential                                         
   LCOR   =        T    correct aug charges                                     
   LPAW   =        T    paw PP                                                  
   EAUG   =  586.980                                                            
   DEXC   =    0.000                                                            
   RMAX   =    2.344    core radius for proj-oper                               
   RAUG   =    1.300    factor for augmentation sphere                          
   RDEP   =    2.302    radius for radial grids                                 
   RDEPT  =    1.771    core radius for aug-charge                              
                                                                                
   Atomic configuration                                                         
    9 entries                                                                   
     n  l   j            E        occ.                                          
     1  0  0.50     -8850.2468   2.0000                                         
     2  0  0.50     -1062.3498   2.0000                                         
     2  1  1.50      -916.8226   6.0000                                         
     3  0  0.50      -114.6929   2.0000                                         
     3  1  1.50       -72.1325   6.0000                                         
     3  2  2.50        -5.0394  10.0000                                         
     4  0  0.50        -4.6097   1.0000                                         
     4  1  0.50        -4.0817   0.0000                                         
     4  3  2.50        -1.3606   0.0000                                         
   Description                                                                  
     l       E           TYP  RCUT    TYP  RCUT                                 
     2     -5.0393973     23  2.200                                             
     2     10.8846608     23  2.200                                             
     0     -4.6097109     23  2.200                                             
     0      8.2520465     23  2.200                                             
     1     -2.7211652     23  2.200                                             
     1     21.7055443     23  2.200                                             
     3      2.7211652     23  2.300                                             
  local pseudopotential read in
  partial core-charges read in
  partial kinetic energy density read in
  atomic valenz-charges read in
  non local Contribution for L=           2  read in
    real space projection operators read in
  non local Contribution for L=           2  read in
    real space projection operators read in
  non local Contribution for L=           0  read in
    real space projection operators read in
  non local Contribution for L=           0  read in
    real space projection operators read in
  non local Contribution for L=           1  read in
    real space projection operators read in
  non local Contribution for L=           1  read in
    real space projection operators read in
    PAW grid and wavefunctions read in
 
   number of l-projection  operators is LMAX  =           6
   number of lm-projection operators is LMMAX =          18
 

 ----------------------------------------------------------------------------- 
|                                                                             |
|  ADVICE TO THIS USER RUNNING 'VASP/VAMP'   (HEAR YOUR MASTER'S VOICE ...):  |
|                                                                             |
|      You have a (more or less) 'large supercell' and for larger cells       |
|      it might be more efficient to use real space projection opertators     |
|      So try LREAL= Auto  in the INCAR   file.                               |
|      Mind:          For very  accurate calculation you might also keep the  |
|      reciprocal projection scheme          (i.e. LREAL=.FALSE.)             |
|                                                                             |
 ----------------------------------------------------------------------------- 

  PAW_PBE Cu 22Jun2005                  :
 energy of atom  1       EATOM=-1390.9808
 kinetic energy error for atom=    0.0452 (will be added to EATOM!!)
 
 
 POSCAR: unknown system                          
  positions in direct lattice
  No initial velocities read in
 exchange correlation table for  LEXCH =        8
   RHO(1)=    0.500       N(1)  =     2000
   RHO(2)=  100.500       N(2)  =     4000
 


--------------------------------------------------------------------------------------------------------


 ion  position               nearest neighbor table
   1  0.377  0.519  0.350-   2 2.32  29 2.56  52 2.57  11 2.60  26 2.61  53 2.66
   2  0.457  0.521  0.388-   1 2.32  13 2.41  11 2.50  52 2.51  31 2.52  17 2.57  36 2.63   7 2.63
                            26 2.66  51 2.66  29 2.68  53 2.76   4 2.76
   3  0.470  0.318  0.532-  21 2.40   5 2.46  27 2.47  15 2.48  18 2.58   8 2.62
   4  0.457  0.566  0.484-  31 2.43  22 2.48  46 2.48   7 2.53  13 2.57  44 2.59  25 2.60  29 2.68
                            20 2.69  42 2.71  26 2.73  24 2.73   2 2.76
   5  0.431  0.372  0.466-  21 2.43   3 2.46  12 2.46  40 2.49  53 2.50  18 2.57  31 2.76
   6  0.528  0.683  0.450-   7 2.36  44 2.42  43 2.43  50 2.52  22 2.59
   7  0.487  0.615  0.407-   6 2.36  36 2.43  50 2.46  26 2.47  11 2.47  22 2.48   4 2.53   2 2.63
                            13 2.71
   8  0.396  0.372  0.573-  21 2.36  45 2.51  12 2.51  15 2.56  37 2.60   3 2.62
   9  0.505  0.505  0.659-  39 2.42  16 2.44  23 2.44  37 2.51  41 2.54  10 2.54  20 2.63  32 2.79

  10  0.538  0.436  0.600-  32 2.34  21 2.45  39 2.48  30 2.52   9 2.54  27 2.55  33 2.56  20 2.58
                            35 2.62  15 2.64  37 2.66  38 2.66
  11  0.440  0.593  0.328-  51 2.38  26 2.40   7 2.47   2 2.50  36 2.56   1 2.60
  12  0.376  0.437  0.506-  31 2.45  45 2.46  25 2.46   5 2.46   8 2.51  53 2.57  29 2.63  21 2.76

  13  0.534  0.528  0.437-  47 2.40   2 2.41  24 2.50  30 2.56   4 2.57  28 2.60  48 2.65  31 2.66
                            36 2.69   7 2.71  17 2.73  50 2.77
  14  0.580  0.625  0.584-  23 2.43  43 2.43  44 2.45  16 2.47  24 2.50  34 2.50
  15  0.481  0.355  0.619-  33 2.46  37 2.46   3 2.48  21 2.51  27 2.53   8 2.56  39 2.58  10 2.64

  16  0.499  0.583  0.608-  46 2.43   9 2.44  14 2.47  23 2.48  20 2.49  44 2.55  41 2.55  24 2.61

  17  0.533  0.475  0.348-  36 2.42  48 2.43  40 2.44  51 2.48  47 2.57   2 2.57  52 2.59  13 2.73

  18  0.529  0.369  0.471-  27 2.43  40 2.43  19 2.55  48 2.56  21 2.56   5 2.57   3 2.58  30 2.61

  19  0.614  0.403  0.503-  30 2.40  38 2.47  48 2.53  27 2.53  35 2.55  18 2.55  28 2.65
  20  0.477  0.503  0.562-  41 2.42  16 2.49  24 2.50  30 2.50  21 2.52  31 2.55  25 2.55  10 2.58
                            37 2.59   9 2.63   4 2.69
  21  0.472  0.410  0.540-   8 2.36   3 2.40   5 2.43  10 2.45  30 2.46  31 2.48  15 2.51  20 2.52
                            18 2.56  37 2.60  27 2.73  12 2.76
  22  0.435  0.657  0.473-  44 2.42   7 2.48   4 2.48  42 2.49  26 2.54   6 2.59  46 2.67
  23  0.582  0.539  0.619-  35 2.39  14 2.43   9 2.44  32 2.47  16 2.48  24 2.55  34 2.68
  24  0.550  0.554  0.528-  34 2.44  14 2.50  30 2.50  20 2.50  13 2.50  44 2.51  23 2.55  16 2.61
                            43 2.61  28 2.72   4 2.73
  25  0.385  0.525  0.539-  45 2.40  29 2.43  41 2.45  42 2.45  12 2.46  46 2.46  20 2.55   4 2.60

  26  0.394  0.599  0.407-  11 2.40  29 2.40  42 2.41   7 2.47  22 2.54   1 2.61   2 2.66   4 2.73

  27  0.555  0.350  0.558-  18 2.43  38 2.45   3 2.47  33 2.49  15 2.53  19 2.53  10 2.55  21 2.73

  28  0.622  0.500  0.475-  49 2.41  35 2.44  30 2.46  48 2.47  34 2.49  47 2.51  13 2.60  19 2.65
                            24 2.72
  29  0.373  0.519  0.447-  53 2.40  26 2.40  25 2.43  42 2.49  31 2.56   1 2.56  12 2.63   4 2.68
                             2 2.68
  30  0.543  0.461  0.507-  19 2.40  21 2.46  28 2.46  31 2.49  24 2.50  20 2.50  48 2.51  10 2.52
                            13 2.56  35 2.60  18 2.61
  31  0.456  0.474  0.472-   4 2.43  12 2.45  53 2.48  21 2.48  30 2.49  40 2.51   2 2.52  20 2.55
                            29 2.56  13 2.66   5 2.76
  32  0.599  0.457  0.662-  10 2.34  23 2.47  38 2.56  39 2.64  35 2.67  33 2.70   9 2.79
  33  0.569  0.359  0.652-  38 2.37  39 2.39  15 2.46  27 2.49  10 2.56  32 2.70
  34  0.642  0.566  0.541-  24 2.44  35 2.47  28 2.49  14 2.50  49 2.51  43 2.51  23 2.68
  35  0.622  0.477  0.565-  38 2.35  23 2.39  28 2.44  34 2.47  19 2.55  30 2.60  10 2.62  32 2.67

  36  0.533  0.567  0.342-  17 2.42   7 2.43  50 2.44  51 2.44  47 2.49  11 2.56   2 2.63  13 2.69

  37  0.441  0.440  0.629-  45 2.37  39 2.45  15 2.46   9 2.51  41 2.52  20 2.59   8 2.60  21 2.60
                            10 2.66
  38  0.630  0.393  0.595-  35 2.35  33 2.37  27 2.45  19 2.47  32 2.56  10 2.66
  39  0.510  0.418  0.689-  33 2.39   9 2.42  37 2.45  10 2.48  15 2.58  32 2.64
  40  0.487  0.415  0.403-  52 2.42  18 2.43  17 2.44  48 2.48   5 2.49  53 2.50  31 2.51
  41  0.418  0.533  0.627-  20 2.42  25 2.45  37 2.52   9 2.54  16 2.55  46 2.61  45 2.63
  42  0.360  0.602  0.492-  26 2.41  46 2.44  25 2.45  22 2.49  29 2.49   4 2.71
  43  0.595  0.636  0.493-  50 2.42   6 2.43  14 2.43  49 2.44  44 2.51  34 2.51  24 2.61
  44  0.506  0.639  0.528-  22 2.42   6 2.42  14 2.45  46 2.49  24 2.51  43 2.51  16 2.55   4 2.59

  45  0.359  0.457  0.596-  37 2.37  25 2.40  12 2.46   8 2.51  41 2.63
  46  0.423  0.608  0.561-  16 2.43  42 2.44  25 2.46   4 2.48  44 2.49  41 2.61  22 2.67
  47  0.608  0.526  0.384-  13 2.40  36 2.49  28 2.51  49 2.51  50 2.55  17 2.57  48 2.64
  48  0.577  0.438  0.421-  17 2.43  28 2.47  40 2.48  30 2.51  19 2.53  18 2.56  47 2.64  13 2.65

  49  0.655  0.581  0.447-  28 2.41  50 2.42  43 2.44  47 2.51  34 2.51
  50  0.581  0.617  0.404-  43 2.42  49 2.42  36 2.44   7 2.46   6 2.52  47 2.55  13 2.77
  51  0.474  0.519  0.288-  52 2.35  11 2.38  36 2.44  17 2.48   2 2.66
  52  0.440  0.447  0.330-  51 2.35  53 2.41  40 2.42   2 2.51   1 2.57  17 2.59
  53  0.394  0.439  0.409-  29 2.40  52 2.41  31 2.48   5 2.50  40 2.50  12 2.57   1 2.66   2 2.76

 
  LATTYP: Found a simple cubic cell.
 ALAT       =    26.1880690000
  
  Lattice vectors:
  
 A1 = (  26.1880690000,   0.0000000000,   0.0000000000)
 A2 = (   0.0000000000,  26.1880690000,   0.0000000000)
 A3 = (   0.0000000000,   0.0000000000,  26.1880690000)


Analysis of symmetry for initial positions (statically):
=====================================================================
 Subroutine PRICEL returns:
 Original cell was already a primitive cell.
 

 Routine SETGRP: Setting up the symmetry group for a 
 simple cubic supercell.


 Subroutine GETGRP returns: Found  1 space group operations
 (whereof  1 operations were pure point group operations)
 out of a pool of 48 trial point group operations.


The static configuration has the point symmetry C_1 .


Analysis of symmetry for dynamics (positions and initial velocities):
=====================================================================
 Subroutine PRICEL returns:
 Original cell was already a primitive cell.
 

 Routine SETGRP: Setting up the symmetry group for a 
 simple cubic supercell.


 Subroutine GETGRP returns: Found  1 space group operations
 (whereof  1 operations were pure point group operations)
 out of a pool of 48 trial point group operations.


The dynamic configuration has the point symmetry C_1 .


Analysis of structural, dynamic, and magnetic symmetry:
=====================================================================
 Subroutine PRICEL returns:
 Original cell was already a primitive cell.
 

 Routine SETGRP: Setting up the symmetry group for a 
 simple cubic supercell.


 Subroutine GETGRP returns: Found  1 space group operations
 (whereof  1 operations were pure point group operations)
 out of a pool of 48 trial point group operations.


The magnetic configuration has the point symmetry C_1 .


 Subroutine INISYM returns: Found  1 space group operations
 (whereof  1 operations are pure point group operations),
 and found     1 'primitive' translations

 
 
 KPOINTS: Gamma-point only                        
  k-points in reciprocal lattice
Space group operators:
 irot       det(A)        alpha          n_x          n_y          n_z        tau_x        tau_y        tau_z
    1     1.000000     0.000000     1.000000     0.000000     0.000000     0.000000     0.000000     0.000000


--------------------------------------------------------------------------------------------------------




 Dimension of arrays:
   k-points           NKPTS =      1   k-points in BZ     NKDIM =      1   number of bands    NBANDS=    432
   number of dos      NEDOS =    301   number of ions     NIONS =     53
   non local maximal  LDIM  =      6   non local SUM 2l+1 LMDIM =     18
   total plane-waves  NPLWV = ******
   max r-space proj   IRMAX =      1   max aug-charges    IRDMAX=   2465
   dimension x,y,z NGX =   112 NGY =  112 NGZ =  112
   dimension x,y,z NGXF=   224 NGYF=  224 NGZF=  224
   support grid    NGXF=   224 NGYF=  224 NGZF=  224
   ions per type =              53
   NGX,Y,Z   is equivalent  to a cutoff of   7.11,  7.11,  7.11 a.u.
   NGXF,Y,Z  is equivalent  to a cutoff of  14.22, 14.22, 14.22 a.u.

 SYSTEM =  unknown system                          
 POSCAR =  unknown system                          

 Startparameter for this run:
   NWRITE =      2    write-flag & timer
   PREC   = normal    normal or accurate (medium, high low for compatibility)
   ISTART =      0    job   : 0-new  1-cont  2-samecut
   ICHARG =      2    charge: 1-file 2-atom 10-const
   ISPIN  =      2    spin polarized calculation?
   LNONCOLLINEAR =      F non collinear calculations
   LSORBIT =      F    spin-orbit coupling
   INIWAV =      1    electr: 0-lowe 1-rand  2-diag
   LASPH  =      F    aspherical Exc in radial PAW
   METAGGA=      F    non-selfconsistent MetaGGA calc.

 Electronic Relaxation 1
   ENCUT  =  295.4 eV  21.71 Ry    4.66 a.u.  36.70 36.70 36.70*2*pi/ulx,y,z
   ENINI  =  295.4     initial cutoff
   ENAUG  =  587.0 eV  augmentation charge cutoff
   NELM   =     60;   NELMIN=  2; NELMDL= -5     # of ELM steps 
   EDIFF  = 0.1E-04   stopping-criterion for ELM
   LREAL  =      F    real-space projection
   NLSPLINE    = F    spline interpolate recip. space projectors
   LCOMPAT=      F    compatible to vasp.4.4
   GGA_COMPAT  = T    GGA compatible to vasp.4.4-vasp.4.6
   LMAXPAW     = -100 max onsite density
   LMAXMIX     =    2 max onsite mixed and CHGCAR
   VOSKOWN=      0    Vosko Wilk Nusair interpolation
   ROPT   =    0.00000
 Ionic relaxation
   EDIFFG = -.1E+00   stopping-criterion for IOM
   NSW    =    101    number of steps for IOM
   NBLOCK =      1;   KBLOCK =    101    inner block; outer block 
   IBRION =      2    ionic relax: 0-MD 1-quasi-New 2-CG
   NFREE  =      1    steps in history (QN), initial steepest desc. (CG)
   ISIF   =      2    stress and relaxation
   IWAVPR =     11    prediction:  0-non 1-charg 2-wave 3-comb
   ISYM   =      2    0-nonsym 1-usesym 2-fastsym
   LCORR  =      T    Harris-Foulkes like correction to forces

   POTIM  = 0.5000    time-step for ionic-motion
   TEIN   =    0.0    initial temperature
   TEBEG  =    0.0;   TEEND  =   0.0 temperature during run
   SMASS  =  -3.00    Nose mass-parameter (am)
   estimated Nose-frequenzy (Omega)   =  0.10E-29 period in steps =****** mass=  -0.157E-25a.u.
   SCALEE = 1.0000    scale energy and forces
   NPACO  =    256;   APACO  = 16.0  distance and # of slots for P.C.
   PSTRESS=    0.0 pullay stress

  Mass of Ions in am
   POMASS =  63.55
  Ionic Valenz
   ZVAL   =  11.00
  Atomic Wigner-Seitz radii
   RWIGS  =  -1.00
  virtual crystal weights 
   VCA    =   1.00
   NELECT =     583.0000    total number of electrons
   NUPDOWN=      -1.0000    fix difference up-down

 DOS related values:
   EMIN   =  10.00;   EMAX   =-10.00  energy-range for DOS
   EFERMI =   0.00
   ISMEAR =     0;   SIGMA  =   0.00  broadening in eV -4-tet -1-fermi 0-gaus

 Electronic relaxation 2 (details)
   IALGO  =     38    algorithm
   LDIAG  =      T    sub-space diagonalisation (order eigenvalues)
   LSUBROT=      F    optimize rotation matrix (better conditioning)
   TURBO    =      0    0=normal 1=particle mesh
   IRESTART =      0    0=no restart 2=restart with 2 vectors
   NREBOOT  =      0    no. of reboots
   NMIN     =      0    reboot dimension
   EREF     =   0.00    reference energy to select bands
   IMIX   =      4    mixing-type and parameters
     AMIX     =   0.40;   BMIX     =  1.00
     AMIX_MAG =   1.60;   BMIX_MAG =  1.00
     AMIN     =   0.10
     WC   =   100.;   INIMIX=   1;  MIXPRE=   1;  MAXMIX= -45

 Intra band minimization:
   WEIMIN = 0.0010     energy-eigenvalue tresh-hold
   EBREAK =  0.58E-08  absolut break condition
   DEPER  =   0.30     relativ break condition  

   TIME   =   0.40     timestep for ELM

  volume/ion in A,a.u.               =     338.87      2286.82
  Fermi-wavevector in a.u.,A,eV,Ry     =   0.522229  0.986869  3.710622  0.272723
  Thomas-Fermi vector in A             =   1.540935
 
 Write flags
   LWAVE        =      F    write WAVECAR
   LDOWNSAMPLE  =      F    k-point downsampling of WAVECAR
   LCHARG       =      F    write CHGCAR
   LVTOT        =      F    write LOCPOT, total local potential
   LVHAR        =      F    write LOCPOT, Hartree potential only
   LELF         =      F    write electronic localiz. function (ELF)
   LORBIT       =     11    0 simple, 1 ext, 2 COOP (PROOUT), +10 PAW based schemes


 Dipole corrections
   LMONO  =      F    monopole corrections only (constant potential shift)
   LDIPOL =      F    correct potential (dipole corrections)
   IDIPOL =      0    1-x, 2-y, 3-z, 4-all directions 
   EPSILON=  1.0000000 bulk dielectric constant

 Exchange correlation treatment:
   GGA     =    PE    GGA type
   LEXCH   =     8    internal setting for exchange type
   VOSKOWN=      0    Vosko Wilk Nusair interpolation
   LHFCALC =     F    Hartree Fock is set to
   LHFONE  =     F    Hartree Fock one center treatment
   AEXX    =    0.0000 exact exchange contribution

 Linear response parameters
   LEPSILON=     F    determine dielectric tensor
   LRPA    =     F    only Hartree local field effects (RPA)
   LNABLA  =     F    use nabla operator in PAW spheres
   LVEL    =     F    velocity operator in full k-point grid
   LINTERFAST=   F  fast interpolation
   KINTER  =     0    interpolate to denser k-point grid
   CSHIFT  =0.1000    complex shift for real part using Kramers Kronig
   OMEGAMAX=  -1.0    maximum frequency
   DEG_THRESHOLD= 0.2000000E-02 threshold for treating states as degnerate
   RTIME   =   -0.100 relaxation time in fs
  (WPLASMAI=    0.000 imaginary part of plasma frequency in eV, 0.658/RTIME)
   DFIELD  = 0.0000000 0.0000000 0.0000000 field for delta impulse in time
 
 Orbital magnetization related:
   ORBITALMAG=     F  switch on orbital magnetization
   LCHIMAG   =     F  perturbation theory with respect to B field
   DQ        =  0.001000  dq finite difference perturbation B field
   LLRAUG    =     F  two centre corrections for induced B field



--------------------------------------------------------------------------------------------------------


 conjugate gradient relaxation of ions
 charge density and potential will be updated during run
 spin polarized calculation
 Variant of blocked Davidson
 Davidson routine will perform the subspace rotation
 perform sub-space diagonalisation
    after iterative eigenvector-optimisation
 modified Broyden-mixing scheme, WC =      100.0
 initial mixing is a Kerker type mixing with AMIX =  0.4000 and BMIX =      1.0000
 Hartree-type preconditioning will be used
 using additional bands          140
 reciprocal scheme for non local part
 use partial core corrections
 calculate Harris-corrections to forces 
   (improved forces if not selfconsistent)
 use gradient corrections 
 use of overlap-Matrix (Vanderbilt PP)
 Gauss-broadening in eV      SIGMA  =   0.00


--------------------------------------------------------------------------------------------------------


  energy-cutoff  :      295.45
  volume of cell :    17960.17
      direct lattice vectors                 reciprocal lattice vectors
    26.188069000  0.000000000  0.000000000     0.038185328  0.000000000  0.000000000
     0.000000000 26.188069000  0.000000000     0.000000000  0.038185328  0.000000000
     0.000000000  0.000000000 26.188069000     0.000000000  0.000000000  0.038185328

  length of vectors
    26.188069000 26.188069000 26.188069000     0.038185328  0.038185328  0.038185328


 
 k-points in units of 2pi/SCALE and weight: Gamma-point only                        
   0.00000000  0.00000000  0.00000000       1.000
 
 k-points in reciprocal lattice and weights: Gamma-point only                        
   0.00000000  0.00000000  0.00000000       1.000
 
 position of ions in fractional coordinates (direct lattice) 
   0.37664722  0.51948254  0.34983758
   0.45660702  0.52111507  0.38830050
   0.47034117  0.31838763  0.53230997
   0.45665300  0.56564599  0.48382710
   0.43058771  0.37157845  0.46596360
   0.52788309  0.68277746  0.45018358
   0.48724788  0.61506522  0.40658380
   0.39639405  0.37195628  0.57274180
   0.50454766  0.50549057  0.65886491
   0.53829236  0.43599086  0.60035616
   0.43992658  0.59293502  0.32796392
   0.37635063  0.43749913  0.50550941
   0.53439430  0.52822789  0.43729261
   0.58006096  0.62471434  0.58415365
   0.48079364  0.35545747  0.61887559
   0.49892763  0.58337073  0.60815074
   0.53301814  0.47470547  0.34792730
   0.52857688  0.36923246  0.47145112
   0.61422412  0.40313195  0.50270055
   0.47712406  0.50305237  0.56241886
   0.47170955  0.40955837  0.54013012
   0.43497356  0.65733291  0.47307264
   0.58196604  0.53873398  0.61892610
   0.55028701  0.55375072  0.52798254
   0.38493088  0.52481733  0.53932957
   0.39446763  0.59896751  0.40717925
   0.55541782  0.34995568  0.55805368
   0.62197725  0.50024286  0.47499089
   0.37321345  0.51923860  0.44746782
   0.54307035  0.46087524  0.50749459
   0.45595430  0.47358055  0.47193938
   0.59922406  0.45664745  0.66224140
   0.56850778  0.35883460  0.65188114
   0.64167810  0.56634662  0.54061502
   0.62238689  0.47724621  0.56516162
   0.53312935  0.56674822  0.34216132
   0.44112843  0.43978246  0.62946807
   0.63022156  0.39278339  0.59489163
   0.51008835  0.41840355  0.68901248
   0.48656435  0.41496831  0.40255942
   0.41750910  0.53296447  0.62659977
   0.36027397  0.60198577  0.49237221
   0.59537108  0.63571851  0.49320160
   0.50643285  0.63876866  0.52847072
   0.35908956  0.45726481  0.59562538
   0.42253337  0.60813906  0.56144599
   0.60849821  0.52588280  0.38369251
   0.57660049  0.43768970  0.42082736
   0.65478887  0.58125128  0.44678486
   0.58113063  0.61709854  0.40394661
   0.47429023  0.51879606  0.28821548
   0.43978599  0.44698079  0.32974162
   0.39420084  0.43882806  0.40910448
 
 position of ions in cartesian coordinates  (Angst):
   9.86366339 13.60424460  9.16157068
  11.95765615 13.64699741 10.16884029
  12.31732701  8.33795722 13.94017022
  11.95886027 14.81317622 12.67049748
  11.27626066  9.73092209 12.20268691
  13.82423878 17.88062323 11.78943866
  12.76008110 16.10737042 10.64764461
  10.38079473  9.74081673 14.99900178
  13.21312893 13.23782193 17.25439972
  14.09683747 11.41775873 15.72216854
  11.52082763 15.52782322  8.58874177
   9.85589627 11.45725740 13.23831531
  13.99475480 13.83326843 11.45184904
  15.19067644 16.36006224 15.29785609
  12.59105702  9.30874475 16.20715665
  13.06595120 15.27735293 15.92629354
  13.95871583 12.43161960  9.11154414
  13.84240781  9.66948514 12.34639446
  16.08534364 10.55724732 13.16475669
  12.49495780 13.17397018 14.72866391
  12.35316224 10.72554285 14.14496485
  11.39111760 17.21427960 12.38885894
  15.24056681 14.10840264 16.20847941
  14.41095419 14.50166206 13.82684319
  10.08059645 13.74395245 14.12399999
  10.33034551 15.68580248 10.66323829
  14.54532019  9.16466349 14.61434828
  16.28838314 13.10039453 12.43909420
   9.77373958 13.59785628 11.71831815
  14.22196380 12.06943259 13.29030334
  11.94056267 12.40216012 12.35918105
  15.69252103 11.95871493 17.34282348
  14.88812097  9.39718526 17.07150827
  16.80431036 14.83152436 14.15766345
  16.29911082 12.49815668 14.80049150
  13.96162820 14.84204149  8.96054426
  11.55230176 11.51705341 16.48455325
  16.50428570 10.28623852 15.57906305
  13.35822891 10.95718104 18.04390637
  12.74218077 10.86721874 10.54225387
  10.93375712 13.95731031 16.40943801
   9.43487959 15.76484488 12.89427741
  15.59161892 16.64824020 12.91599753
  13.26249842 16.72811774 13.83962768
   9.40386217 11.97488240 15.59827855
  11.06533305 15.92598766 14.70318633
  15.93539311 13.77185505 10.04816593
  15.10005342 11.46224806 11.02065594
  17.14765611 15.22184863 11.70043274
  15.21868904 16.16061915 10.57858169
  12.42074527 13.58626702  7.54780688
  11.51714585 11.70556377  8.63529630
  10.32335880 11.49205951 10.71365635
 


--------------------------------------------------------------------------------------------------------


 use parallel FFT for orbitals z direction half grid
 k-point  1 :   0.0000 0.0000 0.0000  plane waves:  103459

 maximum and minimum number of plane-waves per node :      9408     9403

 maximum number of plane-waves:    103459
 maximum index in each direction: 
   IXMAX=   36   IYMAX=   36   IZMAX=   36
   IXMIN=  -36   IYMIN=  -36   IZMIN=    0


 parallel 3D FFT for wavefunctions:
    minimum data exchange during FFTs selected (reduces bandwidth)
 parallel 3D FFT for charge:
    minimum data exchange during FFTs selected (reduces bandwidth)


 total amount of memory used by VASP MPI-rank0   117751. kBytes
=======================================================================

   base      :      30000. kBytes
   nonl-proj :       9332. kBytes
   fftplans  :      12765. kBytes
   grid      :      32904. kBytes
   one-center:         77. kBytes
   wavefun   :      32673. kBytes
 
     INWAV:  cpu time    0.0000: real time    0.0004
 Broyden mixing: mesh for mixing (old mesh)
   NGX = 73   NGY = 73   NGZ = 73
  (NGX  =224   NGY  =224   NGZ  =224)
  gives a total of 389017 points

 initial charge density was supplied:
 charge density of overlapping atoms calculated
 number of electron     583.0000000 magnetization     159.0000000
 keeping initial charge density in first step


--------------------------------------------------------------------------------------------------------


 Maximum index for augmentation-charges          205 (set IRDMAX)


--------------------------------------------------------------------------------------------------------


 First call to EWALD:  gamma=   0.068
 Maximum number of real-space cells 3x 3x 3
 Maximum number of reciprocal cells 3x 3x 3

    FEWALD:  cpu time    0.0040: real time    0.0020


--------------------------------------- Iteration      1(   1)  ---------------------------------------


    POTLOK:  cpu time    0.5680: real time    0.5741
    SETDIJ:  cpu time    0.0120: real time    0.0138
     EDDAV:  cpu time   24.2640: real time   24.2691
       DOS:  cpu time    0.0000: real time    0.0004
    --------------------------------------------
      LOOP:  cpu time   24.8440: real time   24.8574

 eigenvalue-minimisations  :  1800
 total energy-change (2. order) : 0.3794758E+04  (-0.1294399E+05)
 number of electron     583.0000000 magnetization     159.0000000
 augmentation part      583.0000000 magnetization     159.0000000

 Free energy of the ion-electron system (eV)
  ---------------------------------------------------
  alpha Z        PSCENC =       114.38090619
  Ewald energy   TEWEN  =    250406.79363477
  -Hartree energ DENC   =   -317611.42235934
  -exchange      EXHF   =         0.00000000
  -V(xc)+E(xc)   XCENC  =      2450.27856312
  PAW double counting   =     65042.51052954   -70643.48147341
  entropy T*S    EENTRO =        -0.00000000
  eigenvalues    EBANDS =       316.11204102
  atomic energy  EATOM  =     73719.58598687
  Solvation  Ediel_sol  =         0.00000000
  ---------------------------------------------------
  free energy    TOTEN  =      3794.75782877 eV

  energy without entropy =     3794.75782877  energy(sigma->0) =     3794.75782877


--------------------------------------------------------------------------------------------------------




--------------------------------------- Iteration      1(   2)  ---------------------------------------


     EDDAV:  cpu time   24.4120: real time   24.4215
       DOS:  cpu time    0.0000: real time    0.0003
    --------------------------------------------
      LOOP:  cpu time   24.4120: real time   24.4218

 eigenvalue-minimisations  :  1816
 total energy-change (2. order) :-0.3642478E+04  (-0.3309913E+04)
 number of electron     583.0000000 magnetization     159.0000000
 augmentation part      583.0000000 magnetization     159.0000000

 Free energy of the ion-electron system (eV)
  ---------------------------------------------------
  alpha Z        PSCENC =       114.38090619
  Ewald energy   TEWEN  =    250406.79363477
  -Hartree energ DENC   =   -317611.42235934
  -exchange      EXHF   =         0.00000000
  -V(xc)+E(xc)   XCENC  =      2450.27856312
  PAW double counting   =     65042.51052954   -70643.48147341
  entropy T*S    EENTRO =         0.00000000
  eigenvalues    EBANDS =     -3326.36605407
  atomic energy  EATOM  =     73719.58598687
  Solvation  Ediel_sol  =         0.00000000
  ---------------------------------------------------
  free energy    TOTEN  =       152.27973368 eV

  energy without entropy =      152.27973368  energy(sigma->0) =      152.27973368


--------------------------------------------------------------------------------------------------------




--------------------------------------- Iteration      1(   3)  ---------------------------------------


     EDDAV:  cpu time   27.0360: real time   27.0416
       DOS:  cpu time    0.0000: real time    0.0004
    --------------------------------------------
      LOOP:  cpu time   27.0360: real time   27.0421

 eigenvalue-minimisations  :  2072
 total energy-change (2. order) :-0.2568984E+03  (-0.2421046E+03)
 number of electron     583.0000000 magnetization     159.0000000
 augmentation part      583.0000000 magnetization     159.0000000

 Free energy of the ion-electron system (eV)
  ---------------------------------------------------
  alpha Z        PSCENC =       114.38090619
  Ewald energy   TEWEN  =    250406.79363477
  -Hartree energ DENC   =   -317611.42235934
  -exchange      EXHF   =         0.00000000
  -V(xc)+E(xc)   XCENC  =      2450.27856312
  PAW double counting   =     65042.51052954   -70643.48147341
  entropy T*S    EENTRO =         0.00000000
  eigenvalues    EBANDS =     -3583.26446515
  atomic energy  EATOM  =     73719.58598687
  Solvation  Ediel_sol  =         0.00000000
  ---------------------------------------------------
  free energy    TOTEN  =      -104.61867739 eV

  energy without entropy =     -104.61867739  energy(sigma->0) =     -104.61867739


--------------------------------------------------------------------------------------------------------




--------------------------------------- Iteration      1(   4)  ---------------------------------------


     EDDAV:  cpu time   27.8760: real time   27.8799
       DOS:  cpu time    0.0000: real time    0.0005
    --------------------------------------------
      LOOP:  cpu time   27.8760: real time   27.8804

 eigenvalue-minimisations  :  2152
 total energy-change (2. order) :-0.1452849E+02  (-0.1392889E+02)
 number of electron     583.0000000 magnetization     159.0000000
 augmentation part      583.0000000 magnetization     159.0000000

 Free energy of the ion-electron system (eV)
  ---------------------------------------------------
  alpha Z        PSCENC =       114.38090619
  Ewald energy   TEWEN  =    250406.79363477
  -Hartree energ DENC   =   -317611.42235934
  -exchange      EXHF   =         0.00000000
  -V(xc)+E(xc)   XCENC  =      2450.27856312
  PAW double counting   =     65042.51052954   -70643.48147341
  entropy T*S    EENTRO =         0.00000000
  eigenvalues    EBANDS =     -3597.79295343
  atomic energy  EATOM  =     73719.58598687
  Solvation  Ediel_sol  =         0.00000000
  ---------------------------------------------------
  free energy    TOTEN  =      -119.14716568 eV

  energy without entropy =     -119.14716568  energy(sigma->0) =     -119.14716568


--------------------------------------------------------------------------------------------------------




--------------------------------------- Iteration      1(   5)  ---------------------------------------


     EDDAV:  cpu time   28.2840: real time   28.2927
       DOS:  cpu time    0.0000: real time    0.0006
    CHARGE:  cpu time    0.6120: real time    0.6123
    MIXING:  cpu time    0.0120: real time    0.0143
    --------------------------------------------
      LOOP:  cpu time   28.9080: real time   28.9200

 eigenvalue-minimisations  :  2192
 total energy-change (2. order) :-0.5061676E+00  (-0.5038655E+00)
 number of electron     582.9999262 magnetization     148.2008963
 augmentation part      341.2445520 magnetization     141.2353279

 Broyden mixing:
  rms(total) = 0.12907E+02    rms(broyden)= 0.12905E+02
  rms(prec ) = 0.13027E+02
  weight for this iteration     100.00

 Free energy of the ion-electron system (eV)
  ---------------------------------------------------
  alpha Z        PSCENC =       114.38090619
  Ewald energy   TEWEN  =    250406.79363477
  -Hartree energ DENC   =   -317611.42235934
  -exchange      EXHF   =         0.00000000
  -V(xc)+E(xc)   XCENC  =      2450.27856312
  PAW double counting   =     65042.51052954   -70643.48147341
  entropy T*S    EENTRO =         0.00000000
  eigenvalues    EBANDS =     -3598.29912105
  atomic energy  EATOM  =     73719.58598687
  Solvation  Ediel_sol  =         0.00000000
  ---------------------------------------------------
  free energy    TOTEN  =      -119.65333330 eV

  energy without entropy =     -119.65333330  energy(sigma->0) =     -119.65333330


--------------------------------------------------------------------------------------------------------




--------------------------------------- Iteration      1(   6)  ---------------------------------------


    POTLOK:  cpu time    0.5520: real time    0.5591
    SETDIJ:  cpu time    0.0120: real time    0.0138
     EDDAV:  cpu time   24.7520: real time   24.7539
       DOS:  cpu time    0.0000: real time    0.0007
    CHARGE:  cpu time    0.6080: real time    0.6059
    MIXING:  cpu time    0.0160: real time    0.0155
    --------------------------------------------
      LOOP:  cpu time   25.9400: real time   25.9488

 eigenvalue-minimisations  :  1848
 total energy-change (2. order) : 0.3188835E+03  (-0.2117379E+03)
 number of electron     582.9999140 magnetization     140.3390200
 augmentation part      402.9008035 magnetization      94.8080064

 Broyden mixing:
  rms(total) = 0.66512E+01    rms(broyden)= 0.66479E+01
  rms(prec ) = 0.68303E+01
  weight for this iteration     100.00

 eigenvalues of (default mixing * dielectric matrix)
  average eigenvalue GAMMA=   0.9441
  0.9441

 Free energy of the ion-electron system (eV)
  ---------------------------------------------------
  alpha Z        PSCENC =       114.38090619
  Ewald energy   TEWEN  =    250406.79363477
  -Hartree energ DENC   =   -315944.35619550
  -exchange      EXHF   =         0.00000000
  -V(xc)+E(xc)   XCENC  =      2601.73162761
  PAW double counting   =     65211.40179824   -70508.88033625
  entropy T*S    EENTRO =         0.00000000
  eigenvalues    EBANDS =     -5401.42729059
  atomic energy  EATOM  =     73719.58598687
  Solvation  Ediel_sol  =         0.00000000
  ---------------------------------------------------
  free energy    TOTEN  =       199.23013134 eV

  energy without entropy =      199.23013134  energy(sigma->0) =      199.23013134


--------------------------------------------------------------------------------------------------------




--------------------------------------- Iteration      1(   7)  ---------------------------------------


    POTLOK:  cpu time    0.5520: real time    0.5575
    SETDIJ:  cpu time    0.0160: real time    0.0136
     EDDAV:  cpu time   26.3080: real time   26.3116
       DOS:  cpu time    0.0000: real time    0.0007
    CHARGE:  cpu time    0.6000: real time    0.5987
    MIXING:  cpu time    0.0160: real time    0.0158
    --------------------------------------------
      LOOP:  cpu time   27.4920: real time   27.4979

 eigenvalue-minimisations  :  2000
 total energy-change (2. order) : 0.3364694E+02  (-0.8080044E+02)
 number of electron     582.9999199 magnetization     130.8170314
 augmentation part      377.4113512 magnetization      82.3677971

 Broyden mixing:
  rms(total) = 0.34384E+01    rms(broyden)= 0.34370E+01
  rms(prec ) = 0.34764E+01
  weight for this iteration     100.00

 eigenvalues of (default mixing * dielectric matrix)
  average eigenvalue GAMMA=   0.8720
  1.0430  0.7010

 Free energy of the ion-electron system (eV)
  ---------------------------------------------------
  alpha Z        PSCENC =       114.38090619
  Ewald energy   TEWEN  =    250406.79363477
  -Hartree energ DENC   =   -317254.88047595
  -exchange      EXHF   =         0.00000000
  -V(xc)+E(xc)   XCENC  =      2649.26404975
  PAW double counting   =     67239.49126856   -73004.94338173
  entropy T*S    EENTRO =         0.00000000
  eigenvalues    EBANDS =     -3636.81491954
  atomic energy  EATOM  =     73719.58598687
  Solvation  Ediel_sol  =         0.00000000
  ---------------------------------------------------
  free energy    TOTEN  =       232.87706893 eV

  energy without entropy =      232.87706893  energy(sigma->0) =      232.87706893


--------------------------------------------------------------------------------------------------------




--------------------------------------- Iteration      1(   8)  ---------------------------------------


    POTLOK:  cpu time    0.5480: real time    0.5580
    SETDIJ:  cpu time    0.0120: real time    0.0134
     EDDAV:  cpu time   29.4640: real time   29.4640
       DOS:  cpu time    0.0000: real time    0.0007
    CHARGE:  cpu time    0.6040: real time    0.6030
    MIXING:  cpu time    0.0160: real time    0.0163
    --------------------------------------------
      LOOP:  cpu time   30.6440: real time   30.6555

 eigenvalue-minimisations  :  2304
 total energy-change (2. order) : 0.1648569E+02  (-0.1423037E+02)
 number of electron     582.9999201 magnetization     124.8673662
 augmentation part      372.2804006 magnetization      75.7419361

 Broyden mixing:
  rms(total) = 0.33178E+01    rms(broyden)= 0.33172E+01
  rms(prec ) = 0.34049E+01
  weight for this iteration     100.00

 eigenvalues of (default mixing * dielectric matrix)
  average eigenvalue GAMMA=   0.7748
  1.1151  0.7032  0.5061

 Free energy of the ion-electron system (eV)
  ---------------------------------------------------
  alpha Z        PSCENC =       114.38090619
  Ewald energy   TEWEN  =    250406.79363477
  -Hartree energ DENC   =   -317529.66939425
  -exchange      EXHF   =         0.00000000
  -V(xc)+E(xc)   XCENC  =      2667.14357003
  PAW double counting   =     68434.31891645   -74240.05556379
  entropy T*S    EENTRO =         0.00000000
  eigenvalues    EBANDS =     -3323.13529639
  atomic energy  EATOM  =     73719.58598687
  Solvation  Ediel_sol  =         0.00000000
  ---------------------------------------------------
  free energy    TOTEN  =       249.36275988 eV

  energy without entropy =      249.36275988  energy(sigma->0) =      249.36275988


--------------------------------------------------------------------------------------------------------




--------------------------------------- Iteration      1(   9)  ---------------------------------------


    POTLOK:  cpu time    0.5560: real time    0.5576
    SETDIJ:  cpu time    0.0120: real time    0.0135
     EDDAV:  cpu time   30.6960: real time   30.6980
       DOS:  cpu time    0.0000: real time    0.0008
    CHARGE:  cpu time    0.6040: real time    0.6023
    MIXING:  cpu time    0.0160: real time    0.0172
    --------------------------------------------
      LOOP:  cpu time   31.8840: real time   31.8894

 eigenvalue-minimisations  :  2424
 total energy-change (2. order) :-0.1958774E+02  (-0.4159748E+01)
 number of electron     582.9999208 magnetization     108.2185045
 augmentation part      373.2159148 magnetization      61.3321305

 Broyden mixing:
  rms(total) = 0.24693E+01    rms(broyden)= 0.24688E+01
  rms(prec ) = 0.25042E+01
  weight for this iteration     100.00

 eigenvalues of (default mixing * dielectric matrix)
  average eigenvalue GAMMA=   0.9106
  1.4501  0.9571  0.8243  0.4111

 Free energy of the ion-electron system (eV)
  ---------------------------------------------------
  alpha Z        PSCENC =       114.38090619
  Ewald energy   TEWEN  =    250406.79363477
  -Hartree energ DENC   =   -317471.87868721
  -exchange      EXHF   =         0.00000000
  -V(xc)+E(xc)   XCENC  =      2649.37461151
  PAW double counting   =     68785.65405678   -74573.04648534
  entropy T*S    EENTRO =         0.00000000
  eigenvalues    EBANDS =     -3401.08900249
  atomic energy  EATOM  =     73719.58598687
  Solvation  Ediel_sol  =         0.00000000
  ---------------------------------------------------
  free energy    TOTEN  =       229.77502109 eV

  energy without entropy =      229.77502109  energy(sigma->0) =      229.77502109


--------------------------------------------------------------------------------------------------------




--------------------------------------- Iteration      1(  10)  ---------------------------------------


    POTLOK:  cpu time    0.5560: real time    0.5572
    SETDIJ:  cpu time    0.0120: real time    0.0134
     EDDAV:  cpu time   36.0600: real time   36.0593
       DOS:  cpu time    0.0000: real time    0.0007
    CHARGE:  cpu time    0.6040: real time    0.6063
    MIXING:  cpu time    0.0200: real time    0.0180
    --------------------------------------------
      LOOP:  cpu time   37.2520: real time   37.2549

 eigenvalue-minimisations  :  2944
 total energy-change (2. order) :-0.8678943E+02  (-0.4408795E+01)
 number of electron     582.9999187 magnetization      90.5823672
 augmentation part      375.0420094 magnetization      50.3181947

 Broyden mixing:
  rms(total) = 0.20760E+01    rms(broyden)= 0.20752E+01
  rms(prec ) = 0.21128E+01
  weight for this iteration     100.00

 eigenvalues of (default mixing * dielectric matrix)
  average eigenvalue GAMMA=   1.0995
  2.7304  1.0892  0.7356  0.5567  0.3854

 Free energy of the ion-electron system (eV)
  ---------------------------------------------------
  alpha Z        PSCENC =       114.38090619
  Ewald energy   TEWEN  =    250406.79363477
  -Hartree energ DENC   =   -317522.96258155
  -exchange      EXHF   =         0.00000000
  -V(xc)+E(xc)   XCENC  =      2579.23997542
  PAW double counting   =     69423.83031653   -75155.66109978
  entropy T*S    EENTRO =        -0.00000000
  eigenvalues    EBANDS =     -3422.22154265
  atomic energy  EATOM  =     73719.58598687
  Solvation  Ediel_sol  =         0.00000000
  ---------------------------------------------------
  free energy    TOTEN  =       142.98559581 eV

  energy without entropy =      142.98559581  energy(sigma->0) =      142.98559581


--------------------------------------------------------------------------------------------------------




--------------------------------------- Iteration      1(  11)  ---------------------------------------


    POTLOK:  cpu time    0.5520: real time    0.5573
    SETDIJ:  cpu time    0.0160: real time    0.0135
     EDDAV:  cpu time   28.7160: real time   28.7206
       DOS:  cpu time    0.0040: real time    0.0007
    CHARGE:  cpu time    0.6160: real time    0.6193
    MIXING:  cpu time    0.0200: real time    0.0188
    --------------------------------------------
      LOOP:  cpu time   29.9240: real time   29.9301

 eigenvalue-minimisations  :  2232
 total energy-change (2. order) :-0.4357007E+02  (-0.4335156E+01)
 number of electron     582.9999194 magnetization      80.8377991
 augmentation part      377.3664237 magnetization      45.3168291

 Broyden mixing:
  rms(total) = 0.15518E+01    rms(broyden)= 0.15513E+01
  rms(prec ) = 0.15775E+01
  weight for this iteration     100.00

 eigenvalues of (default mixing * dielectric matrix)
  average eigenvalue GAMMA=   1.1332
  3.3583  1.2164  0.6628  0.6628  0.5114  0.3878

 Free energy of the ion-electron system (eV)
  ---------------------------------------------------
  alpha Z        PSCENC =       114.38090619
  Ewald energy   TEWEN  =    250406.79363477
  -Hartree energ DENC   =   -317573.98673284
  -exchange      EXHF   =         0.00000000
  -V(xc)+E(xc)   XCENC  =      2545.85354054
  PAW double counting   =     69879.76678576   -75575.54080076
  entropy T*S    EENTRO =         0.00000000
  eigenvalues    EBANDS =     -3417.43779966
  atomic energy  EATOM  =     73719.58598687
  Solvation  Ediel_sol  =         0.00000000
  ---------------------------------------------------
  free energy    TOTEN  =        99.41552086 eV

  energy without entropy =       99.41552086  energy(sigma->0) =       99.41552086


--------------------------------------------------------------------------------------------------------




--------------------------------------- Iteration      1(  12)  ---------------------------------------


    POTLOK:  cpu time    0.5560: real time    0.5570
    SETDIJ:  cpu time    0.0120: real time    0.0135
     EDDAV:  cpu time   26.9160: real time   26.9179
       DOS:  cpu time    0.0000: real time    0.0007
    CHARGE:  cpu time    0.6200: real time    0.6175
    MIXING:  cpu time    0.0200: real time    0.0196
    --------------------------------------------
      LOOP:  cpu time   28.1240: real time   28.1261

 eigenvalue-minimisations  :  2056
 total energy-change (2. order) :-0.2915974E+02  (-0.2725558E+01)
 number of electron     582.9999203 magnetization      70.4905080
 augmentation part      376.3577066 magnetization      39.0003934

 Broyden mixing:
  rms(total) = 0.12607E+01    rms(broyden)= 0.12605E+01
  rms(prec ) = 0.12823E+01
  weight for this iteration     100.00

 eigenvalues of (default mixing * dielectric matrix)
  average eigenvalue GAMMA=   1.2400
  4.1259  1.3895  0.8503  0.8503  0.6484  0.4076  0.4076

 Free energy of the ion-electron system (eV)
  ---------------------------------------------------
  alpha Z        PSCENC =       114.38090619
  Ewald energy   TEWEN  =    250406.79363477
  -Hartree energ DENC   =   -317625.47319803
  -exchange      EXHF   =         0.00000000
  -V(xc)+E(xc)   XCENC  =      2527.83271072
  PAW double counting   =     69819.31382311   -75520.60614252
  entropy T*S    EENTRO =         0.00000000
  eigenvalues    EBANDS =     -3371.57193853
  atomic energy  EATOM  =     73719.58598687
  Solvation  Ediel_sol  =         0.00000000
  ---------------------------------------------------
  free energy    TOTEN  =        70.25578258 eV

  energy without entropy =       70.25578258  energy(sigma->0) =       70.25578258


--------------------------------------------------------------------------------------------------------




--------------------------------------- Iteration      1(  13)  ---------------------------------------


    POTLOK:  cpu time    0.5520: real time    0.5573
    SETDIJ:  cpu time    0.0120: real time    0.0134
     EDDAV:  cpu time   27.2280: real time   27.2292
       DOS:  cpu time    0.0000: real time    0.0008
    CHARGE:  cpu time    0.6240: real time    0.6234
    MIXING:  cpu time    0.0200: real time    0.0206
    --------------------------------------------
      LOOP:  cpu time   28.4360: real time   28.4447

 eigenvalue-minimisations  :  2088
 total energy-change (2. order) :-0.4166316E+02  (-0.2909749E+01)
 number of electron     582.9999190 magnetization      54.5820704
 augmentation part      373.9306991 magnetization      28.3228811

 Broyden mixing:
  rms(total) = 0.10463E+01    rms(broyden)= 0.10458E+01
  rms(prec ) = 0.10711E+01
  weight for this iteration     100.00

 eigenvalues of (default mixing * dielectric matrix)
  average eigenvalue GAMMA=   1.3156
  5.1193  1.5922  1.0549  0.7280  0.7280  0.4654  0.4654  0.3717

 Free energy of the ion-electron system (eV)
  ---------------------------------------------------
  alpha Z        PSCENC =       114.38090619
  Ewald energy   TEWEN  =    250406.79363477
  -Hartree energ DENC   =   -317675.14547210
  -exchange      EXHF   =         0.00000000
  -V(xc)+E(xc)   XCENC  =      2501.83667554
  PAW double counting   =     69614.49928220   -75333.81740787
  entropy T*S    EENTRO =         0.00000000
  eigenvalues    EBANDS =     -3319.54097813
  atomic energy  EATOM  =     73719.58598687
  Solvation  Ediel_sol  =         0.00000000
  ---------------------------------------------------
  free energy    TOTEN  =        28.59262747 eV

  energy without entropy =       28.59262747  energy(sigma->0) =       28.59262747


--------------------------------------------------------------------------------------------------------




--------------------------------------- Iteration      1(  14)  ---------------------------------------


    POTLOK:  cpu time    0.5480: real time    0.5567
    SETDIJ:  cpu time    0.0160: real time    0.0135
     EDDAV:  cpu time   30.0560: real time   30.0566
       DOS:  cpu time    0.0000: real time    0.0008
    CHARGE:  cpu time    0.6240: real time    0.6246
    MIXING:  cpu time    0.0200: real time    0.0217
    --------------------------------------------
      LOOP:  cpu time   31.2640: real time   31.2738

 eigenvalue-minimisations  :  2360
 total energy-change (2. order) :-0.5466125E+02  (-0.4800000E+01)
 number of electron     582.9999209 magnetization      43.3646621
 augmentation part      371.4086130 magnetization      21.6423724

 Broyden mixing:
  rms(total) = 0.87668E+00    rms(broyden)= 0.87614E+00
  rms(prec ) = 0.89763E+00
  weight for this iteration     100.00

 eigenvalues of (default mixing * dielectric matrix)
  average eigenvalue GAMMA=   1.3858
  5.8811  2.1269  1.0813  0.7811  0.7811  0.6142  0.4269  0.4015  0.3785

 Free energy of the ion-electron system (eV)
  ---------------------------------------------------
  alpha Z        PSCENC =       114.38090619
  Ewald energy   TEWEN  =    250406.79363477
  -Hartree energ DENC   =   -317712.27379147
  -exchange      EXHF   =         0.00000000
  -V(xc)+E(xc)   XCENC  =      2464.37722982
  PAW double counting   =     69385.30101581   -75115.90122055
  entropy T*S    EENTRO =         0.00000000
  eigenvalues    EBANDS =     -3288.33238672
  atomic energy  EATOM  =     73719.58598687
  Solvation  Ediel_sol  =         0.00000000
  ---------------------------------------------------
  free energy    TOTEN  =       -26.06862528 eV

  energy without entropy =      -26.06862528  energy(sigma->0) =      -26.06862528


--------------------------------------------------------------------------------------------------------




--------------------------------------- Iteration      1(  15)  ---------------------------------------


    POTLOK:  cpu time    0.5560: real time    0.5568
    SETDIJ:  cpu time    0.0120: real time    0.0136
     EDDAV:  cpu time   28.3160: real time   28.3174
       DOS:  cpu time    0.0000: real time    0.0007
    CHARGE:  cpu time    0.6240: real time    0.6209
    MIXING:  cpu time    0.0200: real time    0.0229
    --------------------------------------------
      LOOP:  cpu time   29.5280: real time   29.5322

 eigenvalue-minimisations  :  2192
 total energy-change (2. order) :-0.4763102E+02  (-0.4335294E+01)
 number of electron     582.9999199 magnetization      37.5644169
 augmentation part      371.3899253 magnetization      22.0320659

 Broyden mixing:
  rms(total) = 0.73189E+00    rms(broyden)= 0.73109E+00
  rms(prec ) = 0.75031E+00
  weight for this iteration     100.00

 eigenvalues of (default mixing * dielectric matrix)
  average eigenvalue GAMMA=   1.4160
  6.5490  2.5551  1.0153  0.8292  0.8292  0.5955  0.5955  0.4150  0.3903  0.3859

 Free energy of the ion-electron system (eV)
  ---------------------------------------------------
  alpha Z        PSCENC =       114.38090619
  Ewald energy   TEWEN  =    250406.79363477
  -Hartree energ DENC   =   -317653.66002300
  -exchange      EXHF   =         0.00000000
  -V(xc)+E(xc)   XCENC  =      2427.15433918
  PAW double counting   =     69081.27091305   -74793.31274023
  entropy T*S    EENTRO =        -0.00000000
  eigenvalues    EBANDS =     -3375.91265993
  atomic energy  EATOM  =     73719.58598687
  Solvation  Ediel_sol  =         0.00000000
  ---------------------------------------------------
  free energy    TOTEN  =       -73.69964310 eV

  energy without entropy =      -73.69964310  energy(sigma->0) =      -73.69964310


--------------------------------------------------------------------------------------------------------




--------------------------------------- Iteration      1(  16)  ---------------------------------------


    POTLOK:  cpu time    0.5560: real time    0.5581
    SETDIJ:  cpu time    0.0120: real time    0.0136
     EDDAV:  cpu time   30.0240: real time   30.0252
       DOS:  cpu time    0.0040: real time    0.0007
    CHARGE:  cpu time    0.6160: real time    0.6188
    MIXING:  cpu time    0.0240: real time    0.0237
    --------------------------------------------
      LOOP:  cpu time   31.2360: real time   31.2401

 eigenvalue-minimisations  :  2360
 total energy-change (2. order) :-0.2272135E+02  (-0.2061898E+01)
 number of electron     582.9999203 magnetization      31.3832226
 augmentation part      372.0928615 magnetization      21.1286097

 Broyden mixing:
  rms(total) = 0.56882E+00    rms(broyden)= 0.56807E+00
  rms(prec ) = 0.58123E+00
  weight for this iteration     100.00

 eigenvalues of (default mixing * dielectric matrix)
  average eigenvalue GAMMA=   1.3912
  6.9718  2.7239  1.0208  0.8360  0.8360  0.6640  0.6640  0.4207  0.4207  0.4061
  0.3387

 Free energy of the ion-electron system (eV)
  ---------------------------------------------------
  alpha Z        PSCENC =       114.38090619
  Ewald energy   TEWEN  =    250406.79363477
  -Hartree energ DENC   =   -317595.29441892
  -exchange      EXHF   =         0.00000000
  -V(xc)+E(xc)   XCENC  =      2409.04122466
  PAW double counting   =     68923.10983929   -74618.98318157
  entropy T*S    EENTRO =         0.00000000
  eigenvalues    EBANDS =     -3455.05497973
  atomic energy  EATOM  =     73719.58598687
  Solvation  Ediel_sol  =         0.00000000
  ---------------------------------------------------
  free energy    TOTEN  =       -96.42098844 eV

  energy without entropy =      -96.42098844  energy(sigma->0) =      -96.42098844


--------------------------------------------------------------------------------------------------------




--------------------------------------- Iteration      1(  17)  ---------------------------------------


    POTLOK:  cpu time    0.5560: real time    0.5578
    SETDIJ:  cpu time    0.0120: real time    0.0135
     EDDAV:  cpu time   28.7120: real time   28.7135
       DOS:  cpu time    0.0000: real time    0.0006
    CHARGE:  cpu time    0.6240: real time    0.6206
    MIXING:  cpu time    0.0240: real time    0.0254
    --------------------------------------------
      LOOP:  cpu time   29.9280: real time   29.9314

 eigenvalue-minimisations  :  2232
 total energy-change (2. order) :-0.1444273E+02  (-0.1032862E+01)
 number of electron     582.9999200 magnetization      22.9163445
 augmentation part      372.7320845 magnetization      17.4411586

 Broyden mixing:
  rms(total) = 0.44805E+00    rms(broyden)= 0.44736E+00
  rms(prec ) = 0.45601E+00
  weight for this iteration     100.00

 eigenvalues of (default mixing * dielectric matrix)
  average eigenvalue GAMMA=   1.4609
  8.0154  2.8605  1.1234  0.9775  0.9775  0.7267  0.7267  0.5362  0.4694  0.3850
  0.3850  0.3478

 Free energy of the ion-electron system (eV)
  ---------------------------------------------------
  alpha Z        PSCENC =       114.38090619
  Ewald energy   TEWEN  =    250406.79363477
  -Hartree energ DENC   =   -317561.95666585
  -exchange      EXHF   =         0.00000000
  -V(xc)+E(xc)   XCENC  =      2396.99770167
  PAW double counting   =     68859.81402062   -74546.22584864
  entropy T*S    EENTRO =        -0.00000000
  eigenvalues    EBANDS =     -3500.25345477
  atomic energy  EATOM  =     73719.58598687
  Solvation  Ediel_sol  =         0.00000000
  ---------------------------------------------------
  free energy    TOTEN  =      -110.86371913 eV

  energy without entropy =     -110.86371913  energy(sigma->0) =     -110.86371913


--------------------------------------------------------------------------------------------------------




--------------------------------------- Iteration      1(  18)  ---------------------------------------


    POTLOK:  cpu time    0.5520: real time    0.5572
    SETDIJ:  cpu time    0.0160: real time    0.0135
     EDDAV:  cpu time   29.1120: real time   29.1149
       DOS:  cpu time    0.0000: real time    0.0007
    CHARGE:  cpu time    0.6200: real time    0.6204
    MIXING:  cpu time    0.0280: real time    0.0270
    --------------------------------------------
      LOOP:  cpu time   30.3280: real time   30.3337

 eigenvalue-minimisations  :  2272
 total energy-change (2. order) :-0.1367738E+02  (-0.7367434E+00)
 number of electron     582.9999206 magnetization      18.1737867
 augmentation part      372.8745776 magnetization      15.7243547

 Broyden mixing:
  rms(total) = 0.36269E+00    rms(broyden)= 0.36217E+00
  rms(prec ) = 0.37103E+00
  weight for this iteration     100.00

 eigenvalues of (default mixing * dielectric matrix)
  average eigenvalue GAMMA=   1.5180
  9.1297  3.0111  1.0935  1.0935  1.1313  0.7418  0.7418  0.6849  0.5622  0.4330
  0.3949  0.3949  0.3218

 Free energy of the ion-electron system (eV)
  ---------------------------------------------------
  alpha Z        PSCENC =       114.38090619
  Ewald energy   TEWEN  =    250406.79363477
  -Hartree energ DENC   =   -317551.09033103
  -exchange      EXHF   =         0.00000000
  -V(xc)+E(xc)   XCENC  =      2385.94208734
  PAW double counting   =     68859.65735027   -74546.14120607
  entropy T*S    EENTRO =         0.00000000
  eigenvalues    EBANDS =     -3513.66952685
  atomic energy  EATOM  =     73719.58598687
  Solvation  Ediel_sol  =         0.00000000
  ---------------------------------------------------
  free energy    TOTEN  =      -124.54109850 eV

  energy without entropy =     -124.54109850  energy(sigma->0) =     -124.54109850


--------------------------------------------------------------------------------------------------------




--------------------------------------- Iteration      1(  19)  ---------------------------------------


    POTLOK:  cpu time    0.5560: real time    0.5574
    SETDIJ:  cpu time    0.0120: real time    0.0134
     EDDAV:  cpu time   28.6160: real time   28.6167
       DOS:  cpu time    0.0000: real time    0.0007
    CHARGE:  cpu time    0.6200: real time    0.6203
    MIXING:  cpu time    0.0320: real time    0.0292
    --------------------------------------------
      LOOP:  cpu time   29.8360: real time   29.8376

 eigenvalue-minimisations  :  2224
 total energy-change (2. order) :-0.8742624E+01  (-0.3468993E+00)
 number of electron     582.9999205 magnetization      15.0893981
 augmentation part      372.8513427 magnetization      13.4459830

 Broyden mixing:
  rms(total) = 0.30171E+00    rms(broyden)= 0.30162E+00
  rms(prec ) = 0.30935E+00
  weight for this iteration     100.00

 eigenvalues of (default mixing * dielectric matrix)
  average eigenvalue GAMMA=   1.5402
  9.8204  3.2806  1.2806  1.2806  0.9066  0.9066  0.7374  0.7374  0.5470  0.5470
  0.4048  0.4048  0.3906  0.3190

 Free energy of the ion-electron system (eV)
  ---------------------------------------------------
  alpha Z        PSCENC =       114.38090619
  Ewald energy   TEWEN  =    250406.79363477
  -Hartree energ DENC   =   -317533.26158566
  -exchange      EXHF   =         0.00000000
  -V(xc)+E(xc)   XCENC  =      2378.53546418
  PAW double counting   =     68853.91543858   -74541.37581139
  entropy T*S    EENTRO =         0.00000000
  eigenvalues    EBANDS =     -3531.85775618
  atomic energy  EATOM  =     73719.58598687
  Solvation  Ediel_sol  =         0.00000000
  ---------------------------------------------------
  free energy    TOTEN  =      -133.28372264 eV

  energy without entropy =     -133.28372264  energy(sigma->0) =     -133.28372264


--------------------------------------------------------------------------------------------------------




--------------------------------------- Iteration      1(  20)  ---------------------------------------


    POTLOK:  cpu time    0.5600: real time    0.5626
    SETDIJ:  cpu time    0.0120: real time    0.0136
     EDDAV:  cpu time   29.6120: real time   29.6149
       DOS:  cpu time    0.0040: real time    0.0008
    CHARGE:  cpu time    0.6160: real time    0.6175
    MIXING:  cpu time    0.0320: real time    0.0315
    --------------------------------------------
      LOOP:  cpu time   30.8360: real time   30.8408

 eigenvalue-minimisations  :  2320
 total energy-change (2. order) :-0.7808614E+01  (-0.1917441E+00)
 number of electron     582.9999203 magnetization      12.8041063
 augmentation part      373.0711619 magnetization      11.6981106

 Broyden mixing:
  rms(total) = 0.23135E+00    rms(broyden)= 0.23131E+00
  rms(prec ) = 0.23685E+00
  weight for this iteration     100.00

 eigenvalues of (default mixing * dielectric matrix)
  average eigenvalue GAMMA=   1.5569
 10.1553  3.5751  1.4536  1.4536  0.9773  0.9773  0.7924  0.7924  0.6130  0.6130
  0.4301  0.4301  0.3846  0.3846  0.3209

 Free energy of the ion-electron system (eV)
  ---------------------------------------------------
  alpha Z        PSCENC =       114.38090619
  Ewald energy   TEWEN  =    250406.79363477
  -Hartree energ DENC   =   -317490.45064776
  -exchange      EXHF   =         0.00000000
  -V(xc)+E(xc)   XCENC  =      2371.05182042
  PAW double counting   =     68815.20123161   -74502.05114747
  entropy T*S    EENTRO =        -0.00000000
  eigenvalues    EBANDS =     -3575.60412102
  atomic energy  EATOM  =     73719.58598687
  Solvation  Ediel_sol  =         0.00000000
  ---------------------------------------------------
  free energy    TOTEN  =      -141.09233640 eV

  energy without entropy =     -141.09233640  energy(sigma->0) =     -141.09233640


--------------------------------------------------------------------------------------------------------




--------------------------------------- Iteration      1(  21)  ---------------------------------------


    POTLOK:  cpu time    0.5560: real time    0.5591
    SETDIJ:  cpu time    0.0160: real time    0.0135
     EDDAV:  cpu time   27.8880: real time   27.8877
       DOS:  cpu time    0.0000: real time    0.0006
    CHARGE:  cpu time    0.6040: real time    0.6049
    MIXING:  cpu time    0.0320: real time    0.0345
    --------------------------------------------
      LOOP:  cpu time   29.1000: real time   29.1002

 eigenvalue-minimisations  :  2144
 total energy-change (2. order) :-0.7098362E+01  (-0.9809034E-01)
 number of electron     582.9999204 magnetization       9.4422595
 augmentation part      373.1918571 magnetization       8.5014970

 Broyden mixing:
  rms(total) = 0.17554E+00    rms(broyden)= 0.17551E+00
  rms(prec ) = 0.18015E+00
  weight for this iteration     100.00

 eigenvalues of (default mixing * dielectric matrix)
  average eigenvalue GAMMA=   1.6065
 10.7970  3.9777  1.9051  1.2027  1.2027  0.9767  0.9767  0.7366  0.7366  0.6698
  0.5890  0.4203  0.4032  0.4032  0.3858  0.3203

 Free energy of the ion-electron system (eV)
  ---------------------------------------------------
  alpha Z        PSCENC =       114.38090619
  Ewald energy   TEWEN  =    250406.79363477
  -Hartree energ DENC   =   -317442.95959515
  -exchange      EXHF   =         0.00000000
  -V(xc)+E(xc)   XCENC  =      2363.93575848
  PAW double counting   =     68811.73480696   -74499.39647688
  entropy T*S    EENTRO =         0.00000000
  eigenvalues    EBANDS =     -3622.26571977
  atomic energy  EATOM  =     73719.58598687
  Solvation  Ediel_sol  =         0.00000000
  ---------------------------------------------------
  free energy    TOTEN  =      -148.19069854 eV

  energy without entropy =     -148.19069854  energy(sigma->0) =     -148.19069854


--------------------------------------------------------------------------------------------------------




--------------------------------------- Iteration      1(  22)  ---------------------------------------


    POTLOK:  cpu time    0.5560: real time    0.5566
    SETDIJ:  cpu time    0.0120: real time    0.0136
     EDDAV:  cpu time   27.3800: real time   27.3798
       DOS:  cpu time    0.0000: real time    0.0008
    CHARGE:  cpu time    0.6080: real time    0.6078
    MIXING:  cpu time    0.0400: real time    0.0378
    --------------------------------------------
      LOOP:  cpu time   28.5920: real time   28.5963

 eigenvalue-minimisations  :  2096
 total energy-change (2. order) :-0.5074467E+01  (-0.4211717E-01)
 number of electron     582.9999203 magnetization       6.8143945
 augmentation part      373.1090387 magnetization       5.9359525

 Broyden mixing:
  rms(total) = 0.12532E+00    rms(broyden)= 0.12531E+00
  rms(prec ) = 0.13046E+00
  weight for this iteration     100.00

 eigenvalues of (default mixing * dielectric matrix)
  average eigenvalue GAMMA=   1.6449
 11.2942  4.3821  2.4687  1.3094  1.3094  0.9497  0.9497  0.7463  0.7463  0.6829
  0.6589  0.5364  0.4227  0.4003  0.4003  0.3850  0.3208

 Free energy of the ion-electron system (eV)
  ---------------------------------------------------
  alpha Z        PSCENC =       114.38090619
  Ewald energy   TEWEN  =    250406.79363477
  -Hartree energ DENC   =   -317411.46472988
  -exchange      EXHF   =         0.00000000
  -V(xc)+E(xc)   XCENC  =      2358.97338936
  PAW double counting   =     68832.26814879   -74523.68269355
  entropy T*S    EENTRO =         0.00000000
  eigenvalues    EBANDS =     -3650.11980780
  atomic energy  EATOM  =     73719.58598687
  Solvation  Ediel_sol  =         0.00000000
  ---------------------------------------------------
  free energy    TOTEN  =      -153.26516525 eV

  energy without entropy =     -153.26516525  energy(sigma->0) =     -153.26516525


--------------------------------------------------------------------------------------------------------




--------------------------------------- Iteration      1(  23)  ---------------------------------------


    POTLOK:  cpu time    0.5480: real time    0.5587
    SETDIJ:  cpu time    0.0120: real time    0.0135
     EDDAV:  cpu time   28.0520: real time   28.0523
       DOS:  cpu time    0.0000: real time    0.0007
    CHARGE:  cpu time    0.6080: real time    0.6075
    MIXING:  cpu time    0.0400: real time    0.0417
    --------------------------------------------
      LOOP:  cpu time   29.2600: real time   29.2744

 eigenvalue-minimisations  :  2160
 total energy-change (2. order) :-0.3233908E+01  (-0.1790141E-01)
 number of electron     582.9999204 magnetization       4.9457964
 augmentation part      373.0267706 magnetization       4.0920286

 Broyden mixing:
  rms(total) = 0.81177E-01    rms(broyden)= 0.81161E-01
  rms(prec ) = 0.84505E-01
  weight for this iteration     100.00

 eigenvalues of (default mixing * dielectric matrix)
  average eigenvalue GAMMA=   1.6910
 11.8682  4.9362  2.8438  1.3190  1.3190  0.9853  0.9853  1.0551  0.7454  0.7454
  0.6250  0.6250  0.4598  0.4130  0.4130  0.3894  0.3894  0.3208

 Free energy of the ion-electron system (eV)
  ---------------------------------------------------
  alpha Z        PSCENC =       114.38090619
  Ewald energy   TEWEN  =    250406.79363477
  -Hartree energ DENC   =   -317382.00886445
  -exchange      EXHF   =         0.00000000
  -V(xc)+E(xc)   XCENC  =      2355.74102199
  PAW double counting   =     68845.87637955   -74540.14572513
  entropy T*S    EENTRO =         0.00000000
  eigenvalues    EBANDS =     -3676.72241347
  atomic energy  EATOM  =     73719.58598687
  Solvation  Ediel_sol  =         0.00000000
  ---------------------------------------------------
  free energy    TOTEN  =      -156.49907367 eV

  energy without entropy =     -156.49907367  energy(sigma->0) =     -156.49907367


--------------------------------------------------------------------------------------------------------




--------------------------------------- Iteration      1(  24)  ---------------------------------------


    POTLOK:  cpu time    0.5480: real time    0.5583
    SETDIJ:  cpu time    0.0160: real time    0.0136
     EDDAV:  cpu time   28.2960: real time   28.2990
       DOS:  cpu time    0.0000: real time    0.0007
    CHARGE:  cpu time    0.6080: real time    0.6079
    MIXING:  cpu time    0.0480: real time    0.0465
    --------------------------------------------
      LOOP:  cpu time   29.5160: real time   29.5259

 eigenvalue-minimisations  :  2184
 total energy-change (2. order) :-0.1939260E+01  (-0.9187217E-02)
 number of electron     582.9999204 magnetization       3.8433861
 augmentation part      372.9361788 magnetization       2.9959263

 Broyden mixing:
  rms(total) = 0.52870E-01    rms(broyden)= 0.52851E-01
  rms(prec ) = 0.55906E-01
  weight for this iteration     100.00

 eigenvalues of (default mixing * dielectric matrix)
  average eigenvalue GAMMA=   1.7212
 12.3442  5.4225  3.0420  1.4322  1.3818  1.3818  0.9462  0.9462  0.7546  0.7546
  0.6644  0.6644  0.6054  0.3207  0.4309  0.4309  0.3991  0.3991  0.3821

 Free energy of the ion-electron system (eV)
  ---------------------------------------------------
  alpha Z        PSCENC =       114.38090619
  Ewald energy   TEWEN  =    250406.79363477
  -Hartree energ DENC   =   -317353.18293382
  -exchange      EXHF   =         0.00000000
  -V(xc)+E(xc)   XCENC  =      2353.78378833
  PAW double counting   =     68843.07948177   -74538.85068270
  entropy T*S    EENTRO =         0.00000000
  eigenvalues    EBANDS =     -3704.02851532
  atomic energy  EATOM  =     73719.58598687
  Solvation  Ediel_sol  =         0.00000000
  ---------------------------------------------------
  free energy    TOTEN  =      -158.43833391 eV

  energy without entropy =     -158.43833391  energy(sigma->0) =     -158.43833391


--------------------------------------------------------------------------------------------------------




--------------------------------------- Iteration      1(  25)  ---------------------------------------


    POTLOK:  cpu time    0.5560: real time    0.5611
    SETDIJ:  cpu time    0.0160: real time    0.0135
     EDDAV:  cpu time   25.1520: real time   25.1534
       DOS:  cpu time    0.0000: real time    0.0007
    CHARGE:  cpu time    0.6080: real time    0.6072
    MIXING:  cpu time    0.0520: real time    0.0528
    --------------------------------------------
      LOOP:  cpu time   26.3840: real time   26.3887

 eigenvalue-minimisations  :  1880
 total energy-change (2. order) :-0.6965415E+00  (-0.3346260E-02)
 number of electron     582.9999204 magnetization       3.2079635
 augmentation part      372.9431192 magnetization       2.3806316

 Broyden mixing:
  rms(total) = 0.40800E-01    rms(broyden)= 0.40791E-01
  rms(prec ) = 0.43197E-01
  weight for this iteration     100.00

 eigenvalues of (default mixing * dielectric matrix)
  average eigenvalue GAMMA=   1.7146
 12.5362  5.7221  3.1735  1.7515  1.3734  1.3734  0.9601  0.9601  0.8438  0.7402
  0.7402  0.6472  0.6472  0.4832  0.3207  0.4230  0.4230  0.3785  0.3978  0.3978

 Free energy of the ion-electron system (eV)
  ---------------------------------------------------
  alpha Z        PSCENC =       114.38090619
  Ewald energy   TEWEN  =    250406.79363477
  -Hartree energ DENC   =   -317337.38826444
  -exchange      EXHF   =         0.00000000
  -V(xc)+E(xc)   XCENC  =      2352.95279560
  PAW double counting   =     68843.26898501   -74538.57733761
  entropy T*S    EENTRO =         0.00000000
  eigenvalues    EBANDS =     -3720.15158181
  atomic energy  EATOM  =     73719.58598687
  Solvation  Ediel_sol  =         0.00000000
  ---------------------------------------------------
  free energy    TOTEN  =      -159.13487540 eV

  energy without entropy =     -159.13487540  energy(sigma->0) =     -159.13487540


--------------------------------------------------------------------------------------------------------




--------------------------------------- Iteration      1(  26)  ---------------------------------------


    POTLOK:  cpu time    0.5520: real time    0.5618
    SETDIJ:  cpu time    0.0120: real time    0.0136
     EDDAV:  cpu time   29.0400: real time   29.0390
       DOS:  cpu time    0.0000: real time    0.0007
    CHARGE:  cpu time    0.6280: real time    0.6269
    MIXING:  cpu time    0.0600: real time    0.0599
    --------------------------------------------
      LOOP:  cpu time   30.2920: real time   30.3019

 eigenvalue-minimisations  :  2264
 total energy-change (2. order) :-0.3246949E+00  (-0.1410843E-02)
 number of electron     582.9999204 magnetization       2.7249386
 augmentation part      372.9845420 magnetization       1.8973774

 Broyden mixing:
  rms(total) = 0.25190E-01    rms(broyden)= 0.25185E-01
  rms(prec ) = 0.26551E-01
  weight for this iteration     100.00

 eigenvalues of (default mixing * dielectric matrix)
  average eigenvalue GAMMA=   1.7366
 12.6183  6.1535  3.3761  2.2976  1.2882  1.2882  1.1406  0.9662  0.9662  0.8327
  0.7428  0.7428  0.6280  0.6280  0.3207  0.4599  0.4331  0.4029  0.4029  0.3811
  0.3982

 Free energy of the ion-electron system (eV)
  ---------------------------------------------------
  alpha Z        PSCENC =       114.38090619
  Ewald energy   TEWEN  =    250406.79363477
  -Hartree energ DENC   =   -317327.98179897
  -exchange      EXHF   =         0.00000000
  -V(xc)+E(xc)   XCENC  =      2352.48609868
  PAW double counting   =     68845.53166457   -74539.80473650
  entropy T*S    EENTRO =         0.00000000
  eigenvalues    EBANDS =     -3730.45132592
  atomic energy  EATOM  =     73719.58598687
  Solvation  Ediel_sol  =         0.00000000
  ---------------------------------------------------
  free energy    TOTEN  =      -159.45957030 eV

  energy without entropy =     -159.45957030  energy(sigma->0) =     -159.45957030


--------------------------------------------------------------------------------------------------------




--------------------------------------- Iteration      1(  27)  ---------------------------------------


    POTLOK:  cpu time    0.5560: real time    0.5633
    SETDIJ:  cpu time    0.0160: real time    0.0135
     EDDAV:  cpu time   28.2240: real time   28.2264
       DOS:  cpu time    0.0000: real time    0.0008
    CHARGE:  cpu time    0.6320: real time    0.6294
    MIXING:  cpu time    0.0680: real time    0.0717
    --------------------------------------------
      LOOP:  cpu time   29.5000: real time   29.5052

 eigenvalue-minimisations  :  2184
 total energy-change (2. order) :-0.2191116E+00  (-0.8964415E-03)
 number of electron     582.9999204 magnetization       2.4518728
 augmentation part      373.0107782 magnetization       1.6073292

 Broyden mixing:
  rms(total) = 0.20726E-01    rms(broyden)= 0.20723E-01
  rms(prec ) = 0.21790E-01
  weight for this iteration     100.00

 eigenvalues of (default mixing * dielectric matrix)
  average eigenvalue GAMMA=   1.7286
 12.6678  6.4613  3.4729  2.5493  1.3417  1.3417  1.1488  0.9526  0.9526  0.9939
  0.7307  0.7307  0.6913  0.6021  0.6021  0.3207  0.4405  0.4405  0.4022  0.4022
  0.3806  0.4023

 Free energy of the ion-electron system (eV)
  ---------------------------------------------------
  alpha Z        PSCENC =       114.38090619
  Ewald energy   TEWEN  =    250406.79363477
  -Hartree energ DENC   =   -317320.58509247
  -exchange      EXHF   =         0.00000000
  -V(xc)+E(xc)   XCENC  =      2352.21881624
  PAW double counting   =     68848.29635222   -74541.71910142
  entropy T*S    EENTRO =         0.00000000
  eigenvalues    EBANDS =     -3738.65018430
  atomic energy  EATOM  =     73719.58598687
  Solvation  Ediel_sol  =         0.00000000
  ---------------------------------------------------
  free energy    TOTEN  =      -159.67868191 eV

  energy without entropy =     -159.67868191  energy(sigma->0) =     -159.67868191


--------------------------------------------------------------------------------------------------------




--------------------------------------- Iteration      1(  28)  ---------------------------------------


    POTLOK:  cpu time    0.5560: real time    0.5614
    SETDIJ:  cpu time    0.0160: real time    0.0136
     EDDAV:  cpu time   25.4160: real time   25.4207
       DOS:  cpu time    0.0040: real time    0.0006
    CHARGE:  cpu time    0.6240: real time    0.6258
    MIXING:  cpu time    0.0840: real time    0.0844
    --------------------------------------------
      LOOP:  cpu time   26.6960: real time   26.7065

 eigenvalue-minimisations  :  1912
 total energy-change (2. order) :-0.1498445E+00  (-0.3382747E-03)
 number of electron     582.9999204 magnetization       2.1256319
 augmentation part      373.0039803 magnetization       1.2763659

 Broyden mixing:
  rms(total) = 0.16526E-01    rms(broyden)= 0.16524E-01
  rms(prec ) = 0.17273E-01
  weight for this iteration     100.00

 eigenvalues of (default mixing * dielectric matrix)
  average eigenvalue GAMMA=   1.7207
[...]
  -------------------------------------------------------------------------------------
  Total     -14.97230   -15.05479   -15.30144     0.18142     0.27557     0.12134
  in kB      -1.33564    -1.34300    -1.36500     0.01618     0.02458     0.01082
  external pressure =       -1.35 kB  Pullay stress =        0.00 kB


 VOLUME and BASIS-vectors are now :
 -----------------------------------------------------------------------------
  energy-cutoff  :      295.45
  volume of cell :    17960.17
      direct lattice vectors                 reciprocal lattice vectors
    26.188069000  0.000000000  0.000000000     0.038185328  0.000000000  0.000000000
     0.000000000 26.188069000  0.000000000     0.000000000  0.038185328  0.000000000
     0.000000000  0.000000000 26.188069000     0.000000000  0.000000000  0.038185328

  length of vectors
    26.188069000 26.188069000 26.188069000     0.038185328  0.038185328  0.038185328


 FORCES acting on ions
    electron-ion (+dipol)            ewald-force                    non-local-force                 convergence-correction
 -----------------------------------------------------------------------------------------------
   0.192E+04 -.523E+02 0.168E+04   -.191E+04 0.524E+02 -.167E+04   -.553E+01 -.873E-01 -.531E+01   0.111E-03 0.246E-04 0.389E-04
   0.556E+03 -.103E+03 0.132E+04   -.555E+03 0.103E+03 -.132E+04   -.798E+00 -.371E-01 -.244E+01   -.509E-04 -.239E-04 -.962E-04
   0.453E+03 0.254E+04 0.119E+02   -.452E+03 -.253E+04 -.114E+02   -.155E+01 -.795E+01 -.426E+00   -.115E-04 0.813E-04 -.438E-04
   0.627E+03 -.952E+03 0.394E+02   -.625E+03 0.951E+03 -.398E+02   -.141E+01 0.110E+01 0.432E+00   -.268E-04 0.109E-03 -.675E-04
   0.116E+04 0.207E+04 0.824E+03   -.116E+04 -.207E+04 -.823E+03   -.183E+01 -.360E+01 -.141E+01   0.602E-05 0.684E-05 -.701E-04
   -.354E+03 -.244E+04 0.496E+03   0.353E+03 0.243E+04 -.494E+03   0.222E+00 0.830E+01 -.160E+01   -.644E-04 -.311E-04 0.680E-05
   0.105E+03 -.174E+04 0.116E+04   -.105E+03 0.174E+04 -.116E+04   0.162E+00 -.726E+00 0.692E+00   -.180E-04 0.470E-04 -.514E-04
   0.175E+04 0.170E+04 -.775E+03   -.174E+04 -.170E+04 0.774E+03   -.454E+01 -.475E+01 0.544E+00   -.360E-04 -.545E-04 -.393E-04
   0.696E+02 -.565E+03 -.238E+04   -.701E+02 0.564E+03 0.237E+04   0.598E+00 0.616E+00 0.347E+01   0.505E-04 0.118E-03 0.313E-04
   -.562E+03 0.625E+03 -.115E+04   0.561E+03 -.625E+03 0.114E+04   0.133E+01 -.481E+00 0.152E+01   0.213E-04 -.119E-04 -.725E-04
   0.756E+03 -.136E+04 0.199E+04   -.754E+03 0.135E+04 -.199E+04   -.155E+01 0.474E+01 -.520E+01   0.676E-04 -.137E-03 0.559E-04
   0.222E+04 0.939E+03 0.347E+02   -.222E+04 -.937E+03 -.349E+02   -.272E+01 -.160E+01 0.183E+00   0.144E-04 -.585E-04 -.130E-03
   -.662E+03 -.322E+03 0.799E+03   0.660E+03 0.321E+03 -.798E+03   0.117E+01 0.115E+00 -.125E+01   0.131E-03 -.259E-04 -.846E-04
   -.110E+04 -.190E+04 -.142E+04   0.110E+04 0.190E+04 0.141E+04   0.311E+01 0.602E+01 0.529E+01   -.127E-03 -.126E-03 -.828E-04
   0.524E+03 0.196E+04 -.144E+04   -.523E+03 -.196E+04 0.143E+04   -.836E+00 -.306E+01 0.234E+01   -.972E-06 0.573E-04 -.171E-04
   0.163E+03 -.155E+04 -.184E+04   -.162E+03 0.155E+04 0.184E+04   -.106E+01 0.288E+01 0.120E+01   0.978E-04 0.927E-04 0.478E-04
   -.893E+03 0.849E+03 0.208E+04   0.893E+03 -.848E+03 -.208E+04   0.536E+00 -.131E+01 -.263E+01   0.109E-05 0.115E-03 0.226E-04
   -.621E+03 0.214E+04 0.935E+03   0.621E+03 -.214E+04 -.933E+03   0.100E+00 -.205E+01 -.207E+01   0.572E-04 0.562E-04 -.901E-04
   -.200E+04 0.148E+04 0.469E+03   0.200E+04 -.148E+04 -.467E+03   0.434E+01 -.241E+01 -.196E+01   -.127E-03 0.551E-04 -.668E-04
   0.445E+03 -.225E+03 -.890E+03   -.445E+03 0.224E+03 0.889E+03   -.904E+00 0.103E+01 0.768E+00   0.510E-04 0.338E-04 0.580E-04
   0.528E+03 0.121E+04 -.318E+03   -.527E+03 -.121E+04 0.318E+03   -.117E+01 -.191E+01 -.144E+00   0.228E-04 0.210E-06 0.142E-04
   0.101E+04 -.234E+04 0.109E+03   -.100E+04 0.233E+04 -.109E+03   -.370E+01 0.556E+01 0.260E+00   0.530E-05 -.702E-05 -.706E-05
   -.130E+04 -.825E+03 -.181E+04   0.130E+04 0.825E+03 0.181E+04   0.115E+01 0.380E+00 0.556E+00   -.778E-04 0.646E-04 0.300E-05
   -.754E+03 -.810E+03 -.391E+03   0.753E+03 0.809E+03 0.390E+03   0.932E+00 0.101E+01 0.958E+00   0.867E-04 0.673E-04 -.413E-04
   0.206E+04 -.424E+03 -.703E+03   -.206E+04 0.424E+03 0.703E+03   -.204E+00 0.421E-01 0.173E+00   -.752E-04 0.838E-04 -.191E-04
   0.170E+04 -.145E+04 0.105E+04   -.170E+04 0.145E+04 -.105E+04   -.160E+01 0.141E+01 -.107E+01   -.462E-04 -.622E-04 0.108E-03
   -.928E+03 0.220E+04 -.255E+03   0.927E+03 -.220E+04 0.254E+03   0.145E+01 -.151E+01 0.249E+00   0.421E-04 0.994E-04 -.629E-04
   -.219E+04 0.232E+03 0.500E+03   0.219E+04 -.232E+03 -.499E+03   0.205E+01 0.808E-01 -.656E+00   -.518E-04 -.457E-04 -.119E-03
   0.228E+04 -.108E+03 0.529E+03   -.228E+04 0.108E+03 -.528E+03   -.193E+01 0.865E-01 -.104E+01   -.176E-04 0.102E-03 -.167E-03
   -.749E+03 0.593E+03 0.791E+02   0.749E+03 -.591E+03 -.788E+02   0.639E+00 -.127E+01 -.323E+00   0.135E-03 -.337E-04 -.486E-04
   0.667E+03 0.487E+03 0.404E+03   -.667E+03 -.486E+03 -.403E+03   0.344E+00 -.970E+00 -.537E+00   -.429E-04 -.334E-04 -.175E-03
   -.148E+04 0.100E+03 -.203E+04   0.148E+04 -.999E+02 0.203E+04   0.399E+01 -.636E+00 0.613E+01   0.345E-04 -.223E-04 0.286E-04
   -.879E+03 0.170E+04 -.162E+04   0.876E+03 -.169E+04 0.162E+04   0.287E+01 -.422E+01 0.516E+01   -.116E-04 0.170E-03 0.564E-05
   -.229E+04 -.853E+03 -.663E+03   0.228E+04 0.851E+03 0.660E+03   0.495E+01 0.185E+01 0.212E+01   -.129E-03 0.198E-04 0.448E-04
   -.214E+04 0.169E+03 -.724E+03   0.214E+04 -.168E+03 0.724E+03   0.644E+00 -.395E+00 0.194E+00   -.242E-04 0.580E-05 -.182E-04
   -.814E+03 -.905E+03 0.211E+04   0.813E+03 0.904E+03 -.210E+04   0.853E+00 0.107E+01 -.389E+01   0.620E-05 -.110E-03 -.341E-04
   0.119E+04 0.599E+03 -.187E+04   -.118E+04 -.598E+03 0.187E+04   -.136E+01 -.229E+00 0.214E+00   0.508E-05 0.126E-04 0.639E-04
   -.205E+04 0.124E+04 -.785E+03   0.204E+04 -.124E+04 0.783E+03   0.637E+01 -.262E+01 0.182E+01   0.168E-05 0.516E-04 0.101E-05
   0.131E+03 0.686E+03 -.242E+04   -.130E+03 -.685E+03 0.241E+04   -.906E+00 -.166E+01 0.746E+01   0.706E-04 0.384E-04 -.433E-04
   -.828E+01 0.171E+04 0.151E+04   0.865E+01 -.171E+04 -.151E+04   -.360E+00 -.197E+00 -.147E+00   -.120E-04 0.641E-04 -.352E-04
   0.144E+04 -.800E+03 -.198E+04   -.144E+04 0.797E+03 0.197E+04   -.341E+01 0.242E+01 0.502E+01   0.195E-04 0.821E-05 0.268E-04
   0.221E+04 -.135E+04 -.190E+03   -.221E+04 0.135E+04 0.188E+03   -.624E+01 0.332E+01 0.194E+01   0.570E-04 -.375E-04 -.156E-03
   -.142E+04 -.192E+04 -.478E+02   0.142E+04 0.192E+04 0.474E+02   0.186E+01 0.888E+00 0.338E+00   -.784E-04 -.462E-05 0.102E-03
   -.102E+01 -.216E+04 -.720E+03   0.585E+00 0.216E+04 0.720E+03   0.454E+00 0.107E+01 0.304E+00   -.217E-05 0.101E-03 0.878E-04
   0.221E+04 0.365E+03 -.123E+04   -.220E+04 -.364E+03 0.123E+04   -.677E+01 -.220E+00 0.384E+01   -.232E-04 0.360E-04 0.689E-04
   0.128E+04 -.176E+04 -.125E+04   -.128E+04 0.176E+04 0.125E+04   -.181E+01 0.309E+01 0.242E+01   0.685E-04 0.889E-04 -.666E-04
   -.189E+04 -.756E+01 0.168E+04   0.189E+04 0.850E+01 -.167E+04   0.480E+01 -.932E+00 -.373E+01   -.101E-03 -.721E-04 0.832E-05
   -.149E+04 0.130E+04 0.140E+04   0.149E+04 -.130E+04 -.140E+04   0.256E+01 -.173E+01 -.168E+01   -.728E-05 0.879E-04 -.117E-04
   -.227E+04 -.858E+03 0.671E+03   0.226E+04 0.856E+03 -.669E+03   0.679E+01 0.163E+01 -.139E+01   -.100E-03 -.696E-04 -.104E-03
   -.126E+04 -.158E+04 0.131E+04   0.126E+04 0.158E+04 -.130E+04   0.189E+01 0.139E+01 -.170E+01   -.407E-04 -.312E-04 -.946E-04
   0.107E+03 -.406E+01 0.247E+04   -.106E+03 0.393E+01 -.246E+04   -.109E+01 0.972E-01 -.773E+01   0.205E-04 -.386E-05 0.228E-03
   0.744E+03 0.124E+04 0.206E+04   -.742E+03 -.123E+04 -.206E+04   -.206E+01 -.422E+01 -.455E+01   -.616E-05 0.488E-04 0.730E-04
   0.181E+04 0.124E+04 0.118E+04   -.181E+04 -.124E+04 -.118E+04   -.369E+01 -.170E+01 -.178E+01   0.436E-04 0.443E-04 -.397E-04
 -----------------------------------------------------------------------------------------------
   0.273E+01 0.214E+01 -.105E+01   0.227E-12 0.136E-11 -.114E-11   -.285E+01 -.228E+01 0.924E+00   -.820E-04 0.990E-03 -.103E-02
 
 
 POSITION                                       TOTAL-FORCE (eV/Angst)
 -----------------------------------------------------------------------------------
      9.86366     13.60424      9.16157        -0.018142     -0.017598     -0.006828
     11.95766     13.64700     10.16884        -0.009275      0.013704      0.007474
     12.31733      8.33796     13.94017         0.012806      0.012524     -0.005108
     11.95886     14.81318     12.67050        -0.011392      0.007432     -0.007706
     11.27626      9.73092     12.20269        -0.005044      0.007959     -0.020756
     13.82424     17.88062     11.78944        -0.017248      0.020969      0.030497
     12.76008     16.10737     10.64764         0.006925      0.024531      0.009067
     10.38079      9.74082     14.99900         0.013080     -0.000361     -0.030290
     13.21313     13.23782     17.25440         0.028485      0.008107      0.010977
     14.09684     11.41776     15.72217         0.008070      0.010452     -0.000842
     11.52083     15.52782      8.58874         0.002998      0.008720      0.020594
      9.85590     11.45726     13.23832        -0.034341     -0.018644     -0.004494
     13.99475     13.83327     11.45185         0.017445     -0.011536      0.000080
     15.19068     16.36006     15.29786        -0.000791      0.003000      0.016534
     12.59106      9.30874     16.20716         0.013602      0.024793      0.011289
     13.06595     15.27735     15.92629         0.027401      0.031969     -0.019971
     13.95872     12.43162      9.11154         0.012775     -0.025029     -0.002793
     13.84241      9.66949     12.34639        -0.001656      0.014670      0.020089
     16.08534     10.55725     13.16476         0.007020     -0.019504      0.010483
     12.49496     13.17397     14.72866         0.016746      0.007138      0.002758
     12.35316     10.72554     14.14496         0.011682      0.011013      0.014321
     11.39112     17.21428     12.38886         0.014500      0.007651     -0.002728
     15.24057     14.10840     16.20848        -0.012472      0.023395      0.032408
     14.41095     14.50166     13.82684         0.009977     -0.004979     -0.015518
     10.08060     13.74395     14.12400        -0.017469      0.004200      0.014753
     10.33035     15.68580     10.66324        -0.022917     -0.035051      0.001706
     14.54532      9.16466     14.61435        -0.005792     -0.021379      0.011424
     16.28838     13.10039     12.43909        -0.002632      0.000459     -0.018333
      9.77374     13.59786     11.71832         0.015256     -0.009397     -0.004296
     14.22196     12.06943     13.29030         0.004373      0.008154      0.003980
     11.94056     12.40216     12.35918        -0.016502     -0.006415      0.013725
     15.69252     11.95871     17.34282        -0.032315     -0.013848     -0.007788
     14.88812      9.39719     17.07151        -0.006700     -0.019217     -0.021281
     16.80431     14.83152     14.15766         0.019201      0.024025     -0.002077
     16.29911     12.49816     14.80049         0.000099      0.019289      0.010754
     13.96163     14.84204      8.96054         0.014200      0.004290      0.016309
     11.55230     11.51705     16.48455         0.017687     -0.001431      0.013452
     16.50429     10.28624     15.57906         0.006757      0.003995     -0.000839
     13.35823     10.95718     18.04391        -0.031481      0.015925     -0.019115
     12.74218     10.86722     10.54225         0.006239      0.028557     -0.012394
     10.93376     13.95731     16.40944         0.013742      0.010550     -0.013191
      9.43488     15.76484     12.89428         0.010308      0.013925     -0.019722
     15.59162     16.64824     12.91600         0.009084     -0.002113     -0.010268
     13.26250     16.72812     13.83963         0.019134      0.014366     -0.018515
      9.40386     11.97488     15.59828        -0.010733     -0.008805      0.011747
     11.06533     15.92599     14.70319         0.012317     -0.028202      0.014621
     15.93539     13.77186     10.04817        -0.015318      0.013689     -0.000475
     15.10005     11.46225     11.02066        -0.003883     -0.011519     -0.022467
     17.14766     15.22185     11.70043         0.022190     -0.031326     -0.030542
     15.21869     16.16062     10.57858        -0.017459     -0.024540     -0.007879
     12.42075     13.58627      7.54781        -0.044172     -0.025365     -0.000553
     11.51715     11.70556      8.63530        -0.006923     -0.031524      0.019171
     10.32336     11.49206     10.71366        -0.029440     -0.031665      0.008555
 -----------------------------------------------------------------------------------
    total drift:                               -0.120775     -0.140167     -0.123063


--------------------------------------------------------------------------------------------------------



  FREE ENERGIE OF THE ION-ELECTRON SYSTEM (eV)
  ---------------------------------------------------
  free  energy   TOTEN  =      -160.42027458 eV

  energy  without entropy=     -160.42027458  energy(sigma->0) =     -160.42027458
 


--------------------------------------------------------------------------------------------------------


    POTLOK:  cpu time    0.5640: real time    0.5635


--------------------------------------------------------------------------------------------------------




--------------------------------------------------------------------------------------------------------


  
 reached required accuracy - stopping structural energy minimisation
     LOOP+:  cpu time 1300.3280: real time 1300.6731
    4ORBIT:  cpu time    0.0000: real time    0.0000
 


 total charge     
 
# of ion       s       p       d       tot
------------------------------------------
    1        0.446   0.188   9.250   9.884
    2        0.435   0.371   9.209  10.014
    3        0.466   0.208   9.243   9.917
    4        0.429   0.340   9.204   9.973
    5        0.460   0.248   9.219   9.927
    6        0.478   0.188   9.245   9.911
    7        0.455   0.338   9.197   9.991
    8        0.458   0.209   9.234   9.901
    9        0.465   0.273   9.206   9.945
   10        0.421   0.370   9.223  10.015
   11        0.458   0.212   9.257   9.926
   12        0.452   0.273   9.212   9.936
   13        0.432   0.337   9.198   9.966
   14        0.459   0.224   9.254   9.936
   15        0.455   0.268   9.215   9.939
   16        0.466   0.293   9.205   9.964
   17        0.461   0.280   9.207   9.948
   18        0.458   0.270   9.204   9.932
   19        0.464   0.235   9.223   9.922
   20        0.434   0.352   9.205   9.991
   21        0.459   0.404   9.206  10.068
   22        0.462   0.236   9.223   9.921
   23        0.466   0.281   9.203   9.950
   24        0.449   0.338   9.199   9.986
   25        0.464   0.329   9.195   9.988
   26        0.466   0.280   9.211   9.957
   27        0.454   0.282   9.209   9.946
   28        0.452   0.315   9.201   9.969
   29        0.452   0.310   9.204   9.966
   30        0.455   0.390   9.193  10.038
   31        0.444   0.373   9.201  10.018
   32        0.447   0.195   9.245   9.887
   33        0.473   0.208   9.250   9.932
   34        0.452   0.237   9.236   9.926
   35        0.466   0.304   9.199   9.969
   36        0.466   0.284   9.214   9.964
   37        0.450   0.313   9.202   9.966
   38        0.478   0.223   9.242   9.943
   39        0.463   0.208   9.253   9.925
   40        0.469   0.289   9.204   9.962
   41        0.460   0.231   9.224   9.915
   42        0.480   0.204   9.244   9.927
   43        0.475   0.271   9.209   9.956
   44        0.462   0.305   9.203   9.970
   45        0.483   0.183   9.247   9.913
   46        0.459   0.250   9.223   9.931
   47        0.460   0.238   9.222   9.921
   48        0.458   0.273   9.206   9.937
   49        0.489   0.187   9.241   9.917
   50        0.475   0.255   9.213   9.943
   51        0.476   0.189   9.260   9.926
   52        0.466   0.225   9.245   9.936
   53        0.457   0.274   9.214   9.946
--------------------------------------------------
tot         24.341  14.361 488.651 527.353
 


 magnetization (x)
 
# of ion       s       p       d       tot
------------------------------------------
    1        0.001   0.001   0.002   0.004
    2        0.006   0.003   0.001   0.010
    3        0.000   0.002   0.003   0.005
    4        0.008   0.001   0.017   0.026
    5        0.001   0.004   0.002   0.006
    6       -0.000   0.000   0.002   0.003
    7        0.000  -0.000   0.001   0.001
    8        0.001   0.001   0.002   0.003
    9        0.005   0.005   0.000   0.010
   10       -0.000   0.000   0.004   0.004
   11       -0.000   0.001   0.003   0.003
   12        0.000   0.002   0.004   0.006
   13        0.008   0.002   0.015   0.026
   14        0.002   0.002   0.010   0.014
   15       -0.000   0.002   0.001   0.002
   16        0.001   0.009   0.005   0.015
   17        0.005   0.008   0.009   0.021
   18        0.008   0.007   0.005   0.020
   19       -0.000   0.002   0.011   0.013
   20        0.009   0.001   0.011   0.021
   21        0.001   0.000   0.006   0.007
   22        0.004   0.003   0.005   0.012
   23        0.001   0.004   0.001   0.006
   24        0.003   0.003   0.009   0.016
   25        0.000   0.003   0.005   0.009
   26        0.001   0.001   0.002   0.003
   27        0.002   0.000   0.001   0.003
   28        0.001   0.003   0.004   0.007
   29        0.004  -0.000   0.007   0.010
   30        0.011   0.002   0.007   0.020
   31        0.003   0.005   0.006   0.015
   32       -0.000   0.001   0.003   0.004
   33        0.000   0.000   0.002   0.003
   34        0.000   0.001   0.001   0.002
   35        0.005   0.002   0.002   0.009
   36        0.000   0.002   0.003   0.006
   37        0.004   0.000   0.001   0.006
   38        0.001   0.002   0.002   0.005
   39        0.001   0.001   0.002   0.004
   40        0.004   0.011   0.005   0.020
   41        0.003   0.004   0.010   0.017
   42        0.011   0.005   0.003   0.019
   43        0.002   0.001   0.003   0.006
   44        0.002   0.003   0.002   0.007
   45        0.001   0.000   0.003   0.005
   46        0.005   0.009   0.010   0.024
   47        0.005   0.004   0.009   0.017
   48        0.003   0.010   0.007   0.021
   49       -0.000   0.001   0.000   0.001
   50       -0.001   0.001   0.000   0.001
   51       -0.000   0.001   0.002   0.003
   52       -0.000   0.002   0.006   0.007
   53       -0.000   0.000   0.010   0.010
--------------------------------------------------
tot          0.130   0.139   0.247   0.516
 

 total amount of memory used by VASP MPI-rank0   117751. kBytes
=======================================================================

   base      :      30000. kBytes
   nonl-proj :       9332. kBytes
   fftplans  :      12765. kBytes
   grid      :      32904. kBytes
   one-center:         77. kBytes
   wavefun   :      32673. kBytes
 
  
  
 General timing and accounting informations for this job:
 ========================================================
  
                  Total CPU time used (sec):     1314.124
                            User time (sec):     1309.340
                          System time (sec):        4.784
                         Elapsed time (sec):     1314.447
  
                   Maximum memory used (kb):       43124.
                   Average memory used (kb):           0.
  
                          Minor page faults:        21437
                          Major page faults:           26
                 Voluntary context switches:          570
