 vasp.5.4.1 05Feb16 (build Feb 14 2019 11:27:30) gamma-only                     
  
 executed on           IFC91_ompi date 2021.08.22  19:14:26
 running on   44 total cores
 distrk:  each k-point on   44 cores,    1 groups
 distr:  one band on NCORES_PER_BAND=  11 cores,    4 groups


--------------------------------------------------------------------------------------------------------


 INCAR:
 POTCAR:    PAW_PBE Cu 22Jun2005                  
 POTCAR:    PAW_PBE Cu 22Jun2005                  
   VRHFIN =Cu: d10 p1                                                           
   LEXCH  = PE                                                                  
   EATOM  =  1390.9808 eV,  102.2342 Ry                                         
                                                                                
   TITEL  = PAW_PBE Cu 22Jun2005                                                
   LULTRA =        F    use ultrasoft PP ?                                      
   IUNSCR =        1    unscreen: 0-lin 1-nonlin 2-no                           
   RPACOR =    2.000    partial core radius                                     
   POMASS =   63.546; ZVAL   =   11.000    mass and valenz                      
   RCORE  =    2.300    outmost cutoff radius                                   
   RWIGS  =    2.200; RWIGS  =    1.164    wigner-seitz radius (au A)           
   ENMAX  =  295.446; ENMIN  =  221.585 eV                                      
   ICORE  =        3    local potential                                         
   LCOR   =        T    correct aug charges                                     
   LPAW   =        T    paw PP                                                  
   EAUG   =  586.980                                                            
   DEXC   =    0.000                                                            
   RMAX   =    2.344    core radius for proj-oper                               
   RAUG   =    1.300    factor for augmentation sphere                          
   RDEP   =    2.302    radius for radial grids                                 
   RDEPT  =    1.771    core radius for aug-charge                              
                                                                                
   Atomic configuration                                                         
    9 entries                                                                   
     n  l   j            E        occ.                                          
     1  0  0.50     -8850.2468   2.0000                                         
     2  0  0.50     -1062.3498   2.0000                                         
     2  1  1.50      -916.8226   6.0000                                         
     3  0  0.50      -114.6929   2.0000                                         
     3  1  1.50       -72.1325   6.0000                                         
     3  2  2.50        -5.0394  10.0000                                         
     4  0  0.50        -4.6097   1.0000                                         
     4  1  0.50        -4.0817   0.0000                                         
     4  3  2.50        -1.3606   0.0000                                         
   Description                                                                  
     l       E           TYP  RCUT    TYP  RCUT                                 
     2     -5.0393973     23  2.200                                             
     2     10.8846608     23  2.200                                             
     0     -4.6097109     23  2.200                                             
     0      8.2520465     23  2.200                                             
     1     -2.7211652     23  2.200                                             
     1     21.7055443     23  2.200                                             
     3      2.7211652     23  2.300                                             
  local pseudopotential read in
  partial core-charges read in
  partial kinetic energy density read in
  atomic valenz-charges read in
  non local Contribution for L=           2  read in
    real space projection operators read in
  non local Contribution for L=           2  read in
    real space projection operators read in
  non local Contribution for L=           0  read in
    real space projection operators read in
  non local Contribution for L=           0  read in
    real space projection operators read in
  non local Contribution for L=           1  read in
    real space projection operators read in
  non local Contribution for L=           1  read in
    real space projection operators read in
    PAW grid and wavefunctions read in
 
   number of l-projection  operators is LMAX  =           6
   number of lm-projection operators is LMMAX =          18
 

 ----------------------------------------------------------------------------- 
|                                                                             |
|  ADVICE TO THIS USER RUNNING 'VASP/VAMP'   (HEAR YOUR MASTER'S VOICE ...):  |
|                                                                             |
|      You have a (more or less) 'large supercell' and for larger cells       |
|      it might be more efficient to use real space projection opertators     |
|      So try LREAL= Auto  in the INCAR   file.                               |
|      Mind: At the moment your POTCAR file does not contain real space       |
|       projectors, and has to be modified,  BUT if you                       |
|      want to do an extremely  accurate calculation you might also keep the  |
|      reciprocal projection scheme          (i.e. LREAL=.FALSE.)             |
|                                                                             |
 ----------------------------------------------------------------------------- 

  PAW_PBE Cu 22Jun2005                  :
 energy of atom  1       EATOM=-1390.9808
 kinetic energy error for atom=    0.0452 (will be added to EATOM!!)
 
 
 POSCAR: Unknown Structure <s> Cu </s>           
  positions in direct lattice
  No initial velocities read in
 exchange correlation table for  LEXCH =        8
   RHO(1)=    0.500       N(1)  =     2000
   RHO(2)=  100.500       N(2)  =     4000
 


--------------------------------------------------------------------------------------------------------


 ion  position               nearest neighbor table
   1  0.398  0.435  0.638-   2 2.43  27 2.49   8 2.51   6 2.58  10 2.60   3 2.60
   2  0.437  0.433  0.550-   1 2.43   4 2.43   7 2.48  25 2.49  12 2.50   3 2.52  31 2.53  10 2.54
                            27 2.56  30 2.60   5 2.63
   3  0.490  0.390  0.623-  14 2.44  31 2.51   2 2.52  28 2.53   6 2.53   1 2.60  12 2.61  10 2.62

   4  0.342  0.423  0.542-  27 2.42  22 2.42   2 2.43  25 2.62  11 2.65
   5  0.405  0.489  0.468-  11 2.37   7 2.49  21 2.52  17 2.54  30 2.55  22 2.57  35 2.61   2 2.63
                            24 2.63  32 2.65
   6  0.476  0.448  0.703-  10 2.43  14 2.48   8 2.51   3 2.53   1 2.58  19 2.62
   7  0.482  0.427  0.463-  45 2.38  38 2.42   2 2.48   5 2.49  21 2.49  25 2.51  49 2.53  31 2.53
                            34 2.56  12 2.60
   8  0.414  0.523  0.682-  10 2.45  16 2.45   1 2.51   6 2.51  19 2.61
   9  0.506  0.409  0.353-  21 2.44  49 2.48  34 2.52  45 2.56  33 2.57  18 2.61  48 2.66
  10  0.481  0.493  0.618-  19 2.38  30 2.40   6 2.43   8 2.45  12 2.52   2 2.54  16 2.58  14 2.59
                             1 2.60   3 2.62  13 2.68
  11  0.316  0.510  0.488-   5 2.37  35 2.50  22 2.55  27 2.64   4 2.65  24 2.76
  12  0.536  0.446  0.549-  15 2.43  28 2.44   2 2.50  10 2.52  30 2.57  31 2.59   7 2.60  39 2.60
                             3 2.61  38 2.65
  13  0.527  0.588  0.601-  44 2.46  16 2.47  19 2.52  46 2.52  41 2.53  37 2.58  26 2.62  10 2.68
                            30 2.71
  14  0.563  0.444  0.657-  23 2.44   3 2.44  44 2.46   6 2.48  10 2.59  28 2.69
  15  0.604  0.513  0.538-  12 2.43  54 2.44  23 2.46  41 2.49  40 2.52  38 2.55  20 2.57  44 2.59
                            46 2.62  52 2.64  39 2.66
  16  0.429  0.580  0.605-  27 2.44   8 2.45  13 2.47  26 2.48  10 2.58  35 2.58  30 2.61
  17  0.360  0.482  0.378-  24 2.43  22 2.44  33 2.46  42 2.52   5 2.54  34 2.58  21 2.71
  18  0.571  0.489  0.366-  48 2.45  38 2.49  49 2.51  50 2.53  52 2.56  51 2.60   9 2.61  21 2.67

  19  0.515  0.544  0.690-  10 2.38  44 2.50  13 2.52   8 2.61   6 2.62
  20  0.698  0.478  0.519-  40 2.43  39 2.45  52 2.47  54 2.55  15 2.57  23 2.62
  21  0.467  0.491  0.389-   9 2.44  42 2.44  32 2.49   7 2.49  48 2.52  33 2.52   5 2.52  38 2.61
                            50 2.62  18 2.67  34 2.71  17 2.71
  22  0.334  0.419  0.446-   4 2.42  17 2.44  25 2.49  34 2.51  11 2.55   5 2.57
  23  0.642  0.448  0.601-  14 2.44  15 2.46  39 2.49  40 2.54  28 2.58  44 2.61  20 2.62
  24  0.369  0.571  0.415-  17 2.43  35 2.51  32 2.52  29 2.52  42 2.59   5 2.63  36 2.68  11 2.76

  25  0.407  0.365  0.485-  34 2.45  22 2.49   2 2.49   7 2.51  31 2.52   4 2.62  45 2.72
  26  0.466  0.631  0.529-  29 2.44  41 2.47  37 2.47  16 2.48  35 2.51  32 2.59  13 2.62  30 2.64

  27  0.373  0.507  0.576-  35 2.42   4 2.42  16 2.44   1 2.49   2 2.56  11 2.64
  28  0.580  0.368  0.584-  12 2.44  39 2.50   3 2.53  31 2.56  23 2.58  47 2.62  14 2.69
  29  0.408  0.654  0.455-  36 2.42  26 2.44  35 2.47  32 2.51  24 2.52
  30  0.476  0.527  0.529-  10 2.40  32 2.45  38 2.50  41 2.54   5 2.55  12 2.57   2 2.60  16 2.61
                            26 2.64  13 2.71  35 2.72
  31  0.495  0.353  0.530-  47 2.44   3 2.51  25 2.52   2 2.53   7 2.53  28 2.56  12 2.59  45 2.62

  32  0.464  0.572  0.444-  30 2.45  43 2.47  21 2.49  36 2.49  29 2.51  24 2.52  26 2.59  50 2.61
                             5 2.65  38 2.68  41 2.68  35 2.70
  33  0.422  0.448  0.310-  48 2.44  34 2.46  17 2.46  21 2.52  42 2.54   9 2.57
  34  0.415  0.397  0.393-  25 2.45  33 2.46  22 2.51   9 2.52   7 2.56  17 2.58  45 2.62  21 2.71

  35  0.383  0.579  0.513-  27 2.42  29 2.47  11 2.50  26 2.51  24 2.51  16 2.58   5 2.61  32 2.70
                            30 2.72
  36  0.443  0.632  0.368-  29 2.42  50 2.43  42 2.45  32 2.49  43 2.59  24 2.68
  37  0.552  0.673  0.551-  46 2.45  41 2.45  26 2.47  53 2.52  13 2.58
  38  0.542  0.502  0.460-   7 2.42  41 2.46  52 2.47  18 2.49  30 2.50  15 2.55  51 2.56  21 2.61
                            49 2.62  12 2.65  32 2.68
  39  0.626  0.414  0.509-  47 2.41  20 2.45  23 2.49  52 2.50  28 2.50  49 2.50  12 2.60  15 2.66

  40  0.685  0.539  0.592-  20 2.43  46 2.44  44 2.48  15 2.52  23 2.54  54 2.65
  41  0.551  0.588  0.504-  53 2.41  37 2.45  38 2.46  26 2.47  15 2.49  51 2.51  43 2.51  13 2.53
                            30 2.54  46 2.55  32 2.68
  42  0.418  0.547  0.328-  21 2.44  36 2.45  17 2.52  33 2.54  24 2.59  48 2.62  50 2.74
  43  0.525  0.648  0.428-  32 2.47  41 2.51  36 2.59  50 2.59  51 2.61  53 2.63
  44  0.599  0.533  0.639-  13 2.46  14 2.46  40 2.48  19 2.50  46 2.58  15 2.59  23 2.61
  45  0.495  0.340  0.427-   7 2.38   9 2.56  47 2.59  34 2.62  31 2.62  49 2.62  25 2.72
  46  0.621  0.609  0.574-  40 2.44  37 2.45  13 2.52  54 2.54  41 2.55  44 2.58  15 2.62  53 2.67

  47  0.579  0.334  0.486-  39 2.41  31 2.44  49 2.44  45 2.59  28 2.62
  48  0.504  0.498  0.296-  33 2.44  18 2.45  50 2.47  21 2.52  42 2.62   9 2.66
  49  0.573  0.409  0.425-  47 2.44   9 2.48  39 2.50  18 2.51   7 2.53  52 2.57  38 2.62  45 2.62

  50  0.519  0.575  0.356-  36 2.43  48 2.47  51 2.50  18 2.53  43 2.59  32 2.61  21 2.62  42 2.74

  51  0.597  0.575  0.417-  50 2.50  41 2.51  52 2.53  53 2.54  38 2.56  18 2.60  43 2.61  54 2.63

  52  0.637  0.486  0.442-  20 2.47  38 2.47  39 2.50  51 2.53  18 2.56  49 2.57  54 2.61  15 2.64

  53  0.617  0.653  0.477-  41 2.41  54 2.47  37 2.52  51 2.54  43 2.63  46 2.67
  54  0.668  0.571  0.493-  15 2.44  53 2.47  46 2.54  20 2.55  52 2.61  51 2.63  40 2.65
 

IMPORTANT INFORMATION: All symmetrisations will be switched off!
NOSYMM: (Re-)initialisation of all symmetry stuff for point group C_1.

 
 
 KPOINTS: Gamma only                              
  k-points in reciprocal lattice
Space group operators:
 irot       det(A)        alpha          n_x          n_y          n_z        tau_x        tau_y        tau_z
    1     1.000000     0.000001     1.000000     0.000000     0.000000     0.000000     0.000000     0.000000


--------------------------------------------------------------------------------------------------------




 Dimension of arrays:
   k-points           NKPTS =      1   k-points in BZ     NKDIM =      1   number of bands    NBANDS=    440
   number of dos      NEDOS =    301   number of ions     NIONS =     54
   non local maximal  LDIM  =      6   non local SUM 2l+1 LMDIM =     18
   total plane-waves  NPLWV = ******
   max r-space proj   IRMAX =      1   max aug-charges    IRDMAX=   2480
   dimension x,y,z NGX =   108 NGY =  108 NGZ =  108
   dimension x,y,z NGXF=   216 NGYF=  216 NGZF=  216
   support grid    NGXF=   216 NGYF=  216 NGZF=  216
   ions per type =              54
 NGX,Y,Z   is equivalent  to a cutoff of   7.13,  7.13,  7.13 a.u.
 NGXF,Y,Z  is equivalent  to a cutoff of  14.25, 14.25, 14.25 a.u.


 I would recommend the setting:
   dimension x,y,z NGX =   106 NGY =  106 NGZ =  106
 SYSTEM =  unknown system                          
 POSCAR =  Unknown Structure <s> Cu </s>           

 Startparameter for this run:
   NWRITE =      2    write-flag & timer
   PREC   = normal    normal or accurate (medium, high low for compatibility)
   ISTART =      0    job   : 0-new  1-cont  2-samecut
   ICHARG =      2    charge: 1-file 2-atom 10-const
   ISPIN  =      2    spin polarized calculation?
   LNONCOLLINEAR =      F non collinear calculations
   LSORBIT =      F    spin-orbit coupling
   INIWAV =      1    electr: 0-lowe 1-rand  2-diag
   LASPH  =      F    aspherical Exc in radial PAW
   METAGGA=      F    non-selfconsistent MetaGGA calc.

 Electronic Relaxation 1
   ENCUT  =  295.4 eV  21.71 Ry    4.66 a.u.  35.31 35.31 35.31*2*pi/ulx,y,z
   ENINI  =  295.4     initial cutoff
   ENAUG  =  587.0 eV  augmentation charge cutoff
   NELM   =     60;   NELMIN=  2; NELMDL= -5     # of ELM steps 
   EDIFF  = 0.1E-04   stopping-criterion for ELM
   LREAL  =      F    real-space projection
   NLSPLINE    = F    spline interpolate recip. space projectors
   LCOMPAT=      F    compatible to vasp.4.4
   GGA_COMPAT  = T    GGA compatible to vasp.4.4-vasp.4.6
   LMAXPAW     = -100 max onsite density
   LMAXMIX     =    2 max onsite mixed and CHGCAR
   VOSKOWN=      0    Vosko Wilk Nusair interpolation
   ROPT   =    0.00000
 Ionic relaxation
   EDIFFG = -.1E+00   stopping-criterion for IOM
   NSW    =    201    number of steps for IOM
   NBLOCK =      1;   KBLOCK =    201    inner block; outer block 
   IBRION =      2    ionic relax: 0-MD 1-quasi-New 2-CG
   NFREE  =      1    steps in history (QN), initial steepest desc. (CG)
   ISIF   =      2    stress and relaxation
   IWAVPR =     11    prediction:  0-non 1-charg 2-wave 3-comb
   ISYM   =      0    0-nonsym 1-usesym 2-fastsym
   LCORR  =      T    Harris-Foulkes like correction to forces

   POTIM  = 0.5000    time-step for ionic-motion
   TEIN   =    0.0    initial temperature
   TEBEG  =    0.0;   TEEND  =   0.0 temperature during run
   SMASS  =  -3.00    Nose mass-parameter (am)
   estimated Nose-frequenzy (Omega)   =  0.10E-29 period in steps =****** mass=  -0.145E-25a.u.
   SCALEE = 1.0000    scale energy and forces
   NPACO  =    256;   APACO  = 16.0  distance and # of slots for P.C.
   PSTRESS=    0.0 pullay stress

  Mass of Ions in am
   POMASS =  63.55
  Ionic Valenz
   ZVAL   =  11.00
  Atomic Wigner-Seitz radii
   RWIGS  =  -1.00
  virtual crystal weights 
   VCA    =   1.00
   NELECT =     594.0000    total number of electrons
   NUPDOWN=      -1.0000    fix difference up-down

 DOS related values:
   EMIN   =  10.00;   EMAX   =-10.00  energy-range for DOS
   EFERMI =   0.00
   ISMEAR =     0;   SIGMA  =   0.00  broadening in eV -4-tet -1-fermi 0-gaus

 Electronic relaxation 2 (details)
   IALGO  =     68    algorithm
   LDIAG  =      T    sub-space diagonalisation (order eigenvalues)
   LSUBROT=      F    optimize rotation matrix (better conditioning)
   TURBO    =      0    0=normal 1=particle mesh
   IRESTART =      0    0=no restart 2=restart with 2 vectors
   NREBOOT  =      0    no. of reboots
   NMIN     =      0    reboot dimension
   EREF     =   0.00    reference energy to select bands
   IMIX   =      4    mixing-type and parameters
     AMIX     =   0.20;   BMIX     =  0.00
     AMIX_MAG =   0.80;   BMIX_MAG =  0.00
     AMIN     =   0.10
     WC   =   100.;   INIMIX=   1;  MIXPRE=   1;  MAXMIX= -45

 Intra band minimization:
   WEIMIN = 0.0010     energy-eigenvalue tresh-hold
   EBREAK =  0.57E-08  absolut break condition
   DEPER  =   0.30     relativ break condition  

   TIME   =   0.40     timestep for ELM

  volume/ion in A,a.u.               =     296.22      1998.99
  Fermi-wavevector in a.u.,A,eV,Ry     =   0.546178  1.032127  4.058760  0.298310
  Thomas-Fermi vector in A             =   1.575872
 
 Write flags
   LWAVE  =      F    write WAVECAR
   LCHARG =      F    write CHGCAR
   LVTOT  =      F    write LOCPOT, total local potential
   LVHAR  =      F    write LOCPOT, Hartree potential only
   LELF   =      F    write electronic localiz. function (ELF)
   LORBIT =     11    0 simple, 1 ext, 2 COOP (PROOUT)


 Dipole corrections
   LMONO  =      F    monopole corrections only (constant potential shift)
   LDIPOL =      F    correct potential (dipole corrections)
   IDIPOL =      0    1-x, 2-y, 3-z, 4-all directions 
   EPSILON=  1.0000000 bulk dielectric constant

 Exchange correlation treatment:
   GGA     =    PE    GGA type
   LEXCH   =     8    internal setting for exchange type
   VOSKOWN=      0    Vosko Wilk Nusair interpolation
   LHFCALC =     F    Hartree Fock is set to
   LHFONE  =     F    Hartree Fock one center treatment
   AEXX    =    0.0000 exact exchange contribution

 Linear response parameters
   LEPSILON=     F    determine dielectric tensor
   LRPA    =     F    only Hartree local field effects (RPA)
   LNABLA  =     F    use nabla operator in PAW spheres
   LVEL    =     F    velocity operator in full k-point grid
   LINTERFAST=   F  fast interpolation
   KINTER  =     0    interpolate to denser k-point grid
   CSHIFT  =0.1000    complex shift for real part using Kramers Kronig
   OMEGAMAX=  -1.0    maximum frequency
   DEG_THRESHOLD= 0.2000000E-02 threshold for treating states as degnerate
   RTIME   =    0.100 relaxation time in fs

 Orbital magnetization related:
   ORBITALMAG=     F  switch on orbital magnetization
   LCHIMAG   =     F  perturbation theory with respect to B field
   DQ        =  0.001000  dq finite difference perturbation B field



--------------------------------------------------------------------------------------------------------


 conjugate gradient relaxation of ions
 charge density and potential will be updated during run
 spin polarized calculation
 RMM-DIIS sequential band-by-band and
  variant of blocked Davidson during initial phase
 perform sub-space diagonalisation
    before iterative eigenvector-optimisation
 modified Broyden-mixing scheme, WC =      100.0
 initial mixing is a Kerker type mixing with AMIX =  0.2000 and BMIX =      0.0001
 Hartree-type preconditioning will be used
 using additional bands          143
 reciprocal scheme for non local part
 use partial core corrections
 calculate Harris-corrections to forces 
   (improved forces if not selfconsistent)
 use gradient corrections 
 use of overlap-Matrix (Vanderbilt PP)
 Gauss-broadening in eV      SIGMA  =   0.00


--------------------------------------------------------------------------------------------------------


  energy-cutoff  :      295.45
  volume of cell :    15995.88
      direct lattice vectors                 reciprocal lattice vectors
    25.196260054  0.000000000  0.000000000     0.039688430  0.000000000  0.000000000
     0.000000000 25.196260054  0.000000000     0.000000000  0.039688430  0.000000000
     0.000000000  0.000000000 25.196260054     0.000000000  0.000000000  0.039688430

  length of vectors
    25.196260054 25.196260054 25.196260054     0.039688430  0.039688430  0.039688430


 
 k-points in units of 2pi/SCALE and weight: Gamma only                              
   0.00000000  0.00000000  0.00000000       1.000
 
 k-points in reciprocal lattice and weights: Gamma only                              
   0.00000000  0.00000000  0.00000000       1.000
 
 position of ions in fractional coordinates (direct lattice) 
   0.39849751  0.43454165  0.63827405
   0.43731932  0.43316438  0.55009578
   0.49030551  0.38968277  0.62287456
   0.34167452  0.42296710  0.54167897
   0.40528836  0.48855833  0.46764800
   0.47628584  0.44834997  0.70333072
   0.48210606  0.42677308  0.46262922
   0.41376035  0.52294873  0.68164671
   0.50564015  0.40933222  0.35320346
   0.48108909  0.49317482  0.61817078
   0.31599823  0.50962034  0.48823795
   0.53573683  0.44614021  0.54869664
   0.52704539  0.58775081  0.60119535
   0.56299658  0.44426303  0.65664490
   0.60440015  0.51293970  0.53843279
   0.42923011  0.58025271  0.60456464
   0.36038761  0.48243931  0.37781002
   0.57053019  0.48915701  0.36586667
   0.51462022  0.54399166  0.69035951
   0.69827412  0.47770692  0.51869284
   0.46712887  0.49074309  0.38883052
   0.33350323  0.41918854  0.44590229
   0.64196424  0.44765388  0.60055133
   0.36884480  0.57094806  0.41474010
   0.40700773  0.36539590  0.48459346
   0.46631391  0.63081068  0.52863373
   0.37260264  0.50714158  0.57638734
   0.58023332  0.36758931  0.58424593
   0.40751199  0.65375600  0.45508046
   0.47585369  0.52656910  0.52915772
   0.49520800  0.35348349  0.53028595
   0.46432185  0.57248155  0.44407312
   0.42197111  0.44835846  0.31008188
   0.41474774  0.39702793  0.39284814
   0.38265567  0.57885874  0.51323156
   0.44273589  0.63210537  0.36837054
   0.55188186  0.67332182  0.55064148
   0.54192555  0.50165267  0.45972329
   0.62550646  0.41384382  0.50907841
   0.68488174  0.53867529  0.59195659
   0.55105115  0.58836777  0.50363956
   0.41775970  0.54747233  0.32760325
   0.52478994  0.64789383  0.42796602
   0.59878287  0.53346035  0.63896349
   0.49471555  0.34028436  0.42713412
   0.62100035  0.60918834  0.57374837
   0.57899172  0.33350367  0.48582655
   0.50357231  0.49824345  0.29613851
   0.57322194  0.40868171  0.42481321
   0.51899130  0.57454542  0.35593518
   0.59741503  0.57486253  0.41666964
   0.63723154  0.48619115  0.44239571
   0.61662995  0.65307100  0.47732292
   0.66786021  0.57087403  0.49337609
 
 position of ions in cartesian coordinates  (Angst):
  10.04064677 10.94882429 16.08211887
  11.01881126 10.91412239 13.86035639
  12.35386501  9.81854851 15.69410927
   8.60892004 10.65718913 13.64828428
  10.21175092 12.30984271 11.78298056
  12.00062201 11.29674252 17.72130363
  12.14726970 10.75308557 11.65652604
  10.42521328 13.17635213 17.17494773
  12.74024068 10.31364097  8.89940629
  12.12164591 12.42616089 15.57559161
   7.96197349 12.84052650 12.30177047
  13.49856455 11.24106472 13.82510319
  13.27957260 14.80912232 15.14787440
  14.18540825 11.19376682 16.54499569
  15.22862338 12.92416213 13.56649259
  10.81499359 14.62019808 15.23276778
   9.08042006 12.15566630  9.51939962
  14.37522711 12.32492733  9.21847164
  12.96650481 13.70655527 17.39447784
  17.59389637 12.03642775 13.06911975
  11.76990052 12.36489056  9.79707501
   8.40303400 10.56198334 11.23507017
  16.17509788 11.27920355 15.13164744
   9.29350959 14.38575570 10.44989951
  10.25507255  9.20661020 12.20994271
  11.74936664 15.89407003 13.31959289
   9.38819308 12.77807106 14.52280533
  14.61970954  9.26187597 14.72081250
  10.26777813 16.47220631 11.46632554
  11.98973330 13.26757210 13.33279551
  12.47738966  8.90646203 13.36122260
  11.69917397 14.42439394 11.18898177
  10.63209391 11.29695629  7.81290375
  10.45009195 10.00361902  9.89830384
   9.64149185 14.58507544 12.93151584
  11.15528869 15.92669139  9.28155986
  13.90535894 16.96519174 13.87410595
  13.65449706 12.63977125 11.58330746
  15.76042352 10.42731641 12.82687199
  17.25645847 13.57260277 14.91509216
  13.88442809 14.82466736 12.68983331
  10.52598200 13.79425530  8.25437674
  13.22274370 16.32450152 10.78314313
  15.08708893 13.44120561 16.09949019
  12.46498170  8.57389321 10.76218226
  15.64688637 15.34926779 14.45631301
  14.58842598  8.40304531 12.24101208
  12.68813879 12.55387166  7.46158303
  14.44304895 10.29725060 10.70370400
  13.07663974 14.47639591  8.96823533
  15.05262438 14.48438586 10.49851660
  16.05585171 12.25019855 11.14671745
  15.53676848 16.45494683 12.02675249
  16.82757958 14.38389051 12.43123236
 


--------------------------------------------------------------------------------------------------------


 use parallel FFT for wavefunctions z direction half grid
 k-point  1 :   0.0000 0.0000 0.0000  plane waves:   92154

 maximum and minimum number of plane-waves per node :      8384     8371

 maximum number of plane-waves:     92154
 maximum index in each direction: 
   IXMAX=   35   IYMAX=   35   IZMAX=   35
   IXMIN=  -35   IYMIN=  -35   IZMIN=    0

 WARNING: aliasing errors must be expected set NGX to 142 to avoid them
 WARNING: aliasing errors must be expected set NGY to 142 to avoid them
 WARNING: aliasing errors must be expected set NGZ to 142 to avoid them
 aliasing errors are usually negligible using standard VASP settings
 and one can safely disregard these warnings

 parallel 3D FFT for wavefunctions:
    minimum data exchange during FFTs selected (reduces bandwidth)
 parallel 3D FFT for charge:
    minimum data exchange during FFTs selected (reduces bandwidth)


 total amount of memory used by VASP on root node   104886. kBytes
========================================================================

   base      :      30000. kBytes
   nonl-proj :       8447. kBytes
   fftplans  :      10421. kBytes
   grid      :      26282. kBytes
   one-center:         77. kBytes
   wavefun   :      29659. kBytes
 
     INWAV:  cpu time    0.0000: real time    0.0000
 Broyden mixing: mesh for mixing (old mesh)
   NGX = 71   NGY = 71   NGZ = 71
  (NGX  =216   NGY  =216   NGZ  =216)
  gives a total of 357911 points

 initial charge density was supplied:
 charge density of overlapping atoms calculated
 number of electron     594.0000000 magnetization     162.0000000
 keeping initial charge density in first step


--------------------------------------------------------------------------------------------------------


 Maximum index for augmentation-charges          205 (set IRDMAX)


--------------------------------------------------------------------------------------------------------


 First call to EWALD:  gamma=   0.070
 Maximum number of real-space cells 3x 3x 3
 Maximum number of reciprocal cells 3x 3x 3

 FEWALD executed in parallel
    FEWALD:  cpu time    0.0019: real time    0.0019


----------------------------------------- Iteration    1(   1)  ---------------------------------------


    POTLOK:  cpu time    0.5289: real time    0.5290
    SETDIJ:  cpu time    0.0208: real time    0.0209
     EDDAV:  cpu time   21.8336: real time   21.8426
       DOS:  cpu time    0.0002: real time    0.0003
    --------------------------------------------
      LOOP:  cpu time   22.3864: real time   22.4004

 eigenvalue-minimisations  :  1816
 total energy-change (2. order) : 0.3878917E+04  (-0.1369597E+05)
 number of electron     594.0000000 magnetization     162.0000000
 augmentation part      594.0000000 magnetization     162.0000000

 Free energy of the ion-electron system (eV)
  ---------------------------------------------------
  alpha Z        PSCENC =       133.31883092
  Ewald energy   TEWEN  =    245783.34674009
  -Hartree energ DENC   =   -314353.90351525
  -exchange      EXHF   =         0.00000000
  -V(xc)+E(xc)   XCENC  =      2493.76072647
  PAW double counting   =     66269.72770935   -71976.37735026
  entropy T*S    EENTRO =         0.00000000
  eigenvalues    EBANDS =       418.52278684
  atomic energy  EATOM  =     75110.52157152
  Solvation  Ediel_sol  =         0.00000000
  ---------------------------------------------------
  free energy    TOTEN  =      3878.91749968 eV

  energy without entropy =     3878.91749968  energy(sigma->0) =     3878.91749968


--------------------------------------------------------------------------------------------------------




----------------------------------------- Iteration    1(   2)  ---------------------------------------


     EDDAV:  cpu time   22.1488: real time   22.1509
       DOS:  cpu time    0.0002: real time    0.0002
    --------------------------------------------
      LOOP:  cpu time   22.1501: real time   22.1634

 eigenvalue-minimisations  :  1848
 total energy-change (2. order) :-0.3753003E+04  (-0.3414486E+04)
 number of electron     594.0000000 magnetization     162.0000000
 augmentation part      594.0000000 magnetization     162.0000000

 Free energy of the ion-electron system (eV)
  ---------------------------------------------------
  alpha Z        PSCENC =       133.31883092
  Ewald energy   TEWEN  =    245783.34674009
  -Hartree energ DENC   =   -314353.90351525
  -exchange      EXHF   =         0.00000000
  -V(xc)+E(xc)   XCENC  =      2493.76072647
  PAW double counting   =     66269.72770935   -71976.37735026
  entropy T*S    EENTRO =         0.00000000
  eigenvalues    EBANDS =     -3334.48028655
  atomic energy  EATOM  =     75110.52157152
  Solvation  Ediel_sol  =         0.00000000
  ---------------------------------------------------
  free energy    TOTEN  =       125.91442629 eV

  energy without entropy =      125.91442629  energy(sigma->0) =      125.91442629


--------------------------------------------------------------------------------------------------------




----------------------------------------- Iteration    1(   3)  ---------------------------------------


     EDDAV:  cpu time   24.7674: real time   24.7692
       DOS:  cpu time    0.0004: real time    0.0004
    --------------------------------------------
      LOOP:  cpu time   24.7692: real time   24.7978

 eigenvalue-minimisations  :  2128
 total energy-change (2. order) :-0.2340379E+03  (-0.2198711E+03)
 number of electron     594.0000000 magnetization     162.0000000
 augmentation part      594.0000000 magnetization     162.0000000

 Free energy of the ion-electron system (eV)
  ---------------------------------------------------
  alpha Z        PSCENC =       133.31883092
  Ewald energy   TEWEN  =    245783.34674009
  -Hartree energ DENC   =   -314353.90351525
  -exchange      EXHF   =         0.00000000
  -V(xc)+E(xc)   XCENC  =      2493.76072647
  PAW double counting   =     66269.72770935   -71976.37735026
  entropy T*S    EENTRO =        -0.00000000
  eigenvalues    EBANDS =     -3568.51823645
  atomic energy  EATOM  =     75110.52157152
  Solvation  Ediel_sol  =         0.00000000
  ---------------------------------------------------
  free energy    TOTEN  =      -108.12352361 eV

  energy without entropy =     -108.12352361  energy(sigma->0) =     -108.12352361


--------------------------------------------------------------------------------------------------------




----------------------------------------- Iteration    1(   4)  ---------------------------------------


     EDDAV:  cpu time   25.1785: real time   25.1802
       DOS:  cpu time    0.0003: real time    0.0003
    --------------------------------------------
      LOOP:  cpu time   25.1801: real time   25.2003

 eigenvalue-minimisations  :  2168
 total energy-change (2. order) :-0.1258416E+02  (-0.1208396E+02)
 number of electron     594.0000000 magnetization     162.0000000
 augmentation part      594.0000000 magnetization     162.0000000

 Free energy of the ion-electron system (eV)
  ---------------------------------------------------
  alpha Z        PSCENC =       133.31883092
  Ewald energy   TEWEN  =    245783.34674009
  -Hartree energ DENC   =   -314353.90351525
  -exchange      EXHF   =         0.00000000
  -V(xc)+E(xc)   XCENC  =      2493.76072647
  PAW double counting   =     66269.72770935   -71976.37735026
  entropy T*S    EENTRO =        -0.00000000
  eigenvalues    EBANDS =     -3581.10239898
  atomic energy  EATOM  =     75110.52157152
  Solvation  Ediel_sol  =         0.00000000
  ---------------------------------------------------
  free energy    TOTEN  =      -120.70768614 eV

  energy without entropy =     -120.70768614  energy(sigma->0) =     -120.70768614


--------------------------------------------------------------------------------------------------------




----------------------------------------- Iteration    1(   5)  ---------------------------------------


     EDDAV:  cpu time   25.6331: real time   25.6347
       DOS:  cpu time    0.0005: real time    0.0005
    CHARGE:  cpu time    0.5421: real time    0.5421
    MIXING:  cpu time    0.0126: real time    0.0126
    --------------------------------------------
      LOOP:  cpu time   26.1901: real time   26.2020

 eigenvalue-minimisations  :  2216
 total energy-change (2. order) :-0.4413703E+00  (-0.4394427E+00)
 number of electron     594.0001386 magnetization      59.6000254
 augmentation part      348.7372396 magnetization      53.4056330

 Broyden mixing:
  rms(total) = 0.13052E+02    rms(broyden)= 0.13050E+02
  rms(prec ) = 0.13177E+02
  weight for this iteration     100.00

 Free energy of the ion-electron system (eV)
  ---------------------------------------------------
  alpha Z        PSCENC =       133.31883092
  Ewald energy   TEWEN  =    245783.34674009
  -Hartree energ DENC   =   -314353.90351525
  -exchange      EXHF   =         0.00000000
  -V(xc)+E(xc)   XCENC  =      2493.76072647
  PAW double counting   =     66269.72770935   -71976.37735026
  entropy T*S    EENTRO =        -0.00000000
  eigenvalues    EBANDS =     -3581.54376932
  atomic energy  EATOM  =     75110.52157152
  Solvation  Ediel_sol  =         0.00000000
  ---------------------------------------------------
  free energy    TOTEN  =      -121.14905648 eV

  energy without entropy =     -121.14905648  energy(sigma->0) =     -121.14905648


--------------------------------------------------------------------------------------------------------




----------------------------------------- Iteration    1(   6)  ---------------------------------------


    POTLOK:  cpu time    0.5075: real time    0.5076
    SETDIJ:  cpu time    0.0208: real time    0.0208
    EDDIAG:  cpu time    2.2036: real time    2.2039
  RMM-DIIS:  cpu time   15.5367: real time   15.5378
    ORTHCH:  cpu time    0.3362: real time    0.3362
       DOS:  cpu time    0.0004: real time    0.0004
    CHARGE:  cpu time    0.5444: real time    0.5444
    MIXING:  cpu time    0.0136: real time    0.0136
    --------------------------------------------
      LOOP:  cpu time   19.1651: real time   19.1788

 eigenvalue-minimisations  :  1762
 total energy-change (2. order) :-0.3552574E+02  (-0.2123791E+02)
 number of electron     594.0001548 magnetization      -0.3452360
 augmentation part      384.3964321 magnetization       1.3093825

 Broyden mixing:
  rms(total) = 0.57471E+01    rms(broyden)= 0.57456E+01
  rms(prec ) = 0.57786E+01
  weight for this iteration     100.00

 eigenvalues of (default mixing * dielectric matrix)
  average eigenvalue GAMMA=   1.6603
  1.6603

 Free energy of the ion-electron system (eV)
  ---------------------------------------------------
  alpha Z        PSCENC =       133.31883092
  Ewald energy   TEWEN  =    245783.34674009
  -Hartree energ DENC   =   -313417.40846746
  -exchange      EXHF   =         0.00000000
  -V(xc)+E(xc)   XCENC  =      2403.64727695
  PAW double counting   =     66284.48081955   -71840.14277377
  entropy T*S    EENTRO =         0.00000000
  eigenvalues    EBANDS =     -4614.43879657
  atomic energy  EATOM  =     75110.52157152
  Solvation  Ediel_sol  =         0.00000000
  ---------------------------------------------------
  free energy    TOTEN  =      -156.67479877 eV

  energy without entropy =     -156.67479877  energy(sigma->0) =     -156.67479877


--------------------------------------------------------------------------------------------------------




----------------------------------------- Iteration    1(   7)  ---------------------------------------


    POTLOK:  cpu time    0.5087: real time    0.5087
    SETDIJ:  cpu time    0.0207: real time    0.0207
    EDDIAG:  cpu time    2.1986: real time    2.1987
  RMM-DIIS:  cpu time   16.8835: real time   16.8852
    ORTHCH:  cpu time    0.3349: real time    0.3349
       DOS:  cpu time    0.0004: real time    0.0004
    CHARGE:  cpu time    0.5420: real time    0.5420
    MIXING:  cpu time    0.0140: real time    0.0140
    --------------------------------------------
      LOOP:  cpu time   20.5046: real time   20.5199

 eigenvalue-minimisations  :  1766
 total energy-change (2. order) :-0.1076641E+02  (-0.4038915E+01)
 number of electron     594.0001502 magnetization      -2.6713716
 augmentation part      378.6288727 magnetization      -1.4878158

 Broyden mixing:
  rms(total) = 0.10866E+01    rms(broyden)= 0.10856E+01
  rms(prec ) = 0.13783E+01
  weight for this iteration     100.00

 eigenvalues of (default mixing * dielectric matrix)
  average eigenvalue GAMMA=   1.1725
  0.8354  1.5097

 Free energy of the ion-electron system (eV)
  ---------------------------------------------------
  alpha Z        PSCENC =       133.31883092
  Ewald energy   TEWEN  =    245783.34674009
  -Hartree energ DENC   =   -314142.63368795
  -exchange      EXHF   =         0.00000000
  -V(xc)+E(xc)   XCENC  =      2401.70240260
  PAW double counting   =     67471.35185360   -73135.18732827
  entropy T*S    EENTRO =         0.00000000
  eigenvalues    EBANDS =     -3789.86159445
  atomic energy  EATOM  =     75110.52157152
  Solvation  Ediel_sol  =         0.00000000
  ---------------------------------------------------
  free energy    TOTEN  =      -167.44121193 eV

  energy without entropy =     -167.44121193  energy(sigma->0) =     -167.44121193


--------------------------------------------------------------------------------------------------------




----------------------------------------- Iteration    1(   8)  ---------------------------------------


    POTLOK:  cpu time    0.5094: real time    0.5094
    SETDIJ:  cpu time    0.0207: real time    0.0207
    EDDIAG:  cpu time    2.1970: real time    2.1972
  RMM-DIIS:  cpu time   16.8466: real time   16.8479
    ORTHCH:  cpu time    0.3364: real time    0.3367
       DOS:  cpu time    0.0004: real time    0.0004
    CHARGE:  cpu time    0.5447: real time    0.5447
    MIXING:  cpu time    0.0144: real time    0.0144
    --------------------------------------------
      LOOP:  cpu time   20.4713: real time   20.4846

 eigenvalue-minimisations  :  1768
 total energy-change (2. order) :-0.8401020E+01  (-0.1528058E+01)
 number of electron     594.0001499 magnetization      -3.0788454
 augmentation part      375.9109643 magnetization      -1.8473995

 Broyden mixing:
  rms(total) = 0.30201E+01    rms(broyden)= 0.30171E+01
  rms(prec ) = 0.38107E+01
  weight for this iteration     100.00

 eigenvalues of (default mixing * dielectric matrix)
  average eigenvalue GAMMA=   0.8337
  1.5229  0.8236  0.1545

 Free energy of the ion-electron system (eV)
  ---------------------------------------------------
  alpha Z        PSCENC =       133.31883092
  Ewald energy   TEWEN  =    245783.34674009
  -Hartree energ DENC   =   -314088.08910049
  -exchange      EXHF   =         0.00000000
  -V(xc)+E(xc)   XCENC  =      2398.74520387
  PAW double counting   =     67904.58535266   -73588.99990219
  entropy T*S    EENTRO =         0.00000000
  eigenvalues    EBANDS =     -3829.27092811
  atomic energy  EATOM  =     75110.52157152
  Solvation  Ediel_sol  =         0.00000000
  ---------------------------------------------------
  free energy    TOTEN  =      -175.84223173 eV

  energy without entropy =     -175.84223173  energy(sigma->0) =     -175.84223173


--------------------------------------------------------------------------------------------------------




----------------------------------------- Iteration    1(   9)  ---------------------------------------


    POTLOK:  cpu time    0.5086: real time    0.5086
    SETDIJ:  cpu time    0.0207: real time    0.0207
    EDDIAG:  cpu time    2.1978: real time    2.1981
  RMM-DIIS:  cpu time   16.9117: real time   16.9132
    ORTHCH:  cpu time    0.3334: real time    0.3334
       DOS:  cpu time    0.0004: real time    0.0004
    CHARGE:  cpu time    0.5466: real time    0.5467
    MIXING:  cpu time    0.0150: real time    0.0150
    --------------------------------------------
      LOOP:  cpu time   20.5362: real time   20.5824

 eigenvalue-minimisations  :  1766
 total energy-change (2. order) : 0.1118951E+02  (-0.4793889E+00)
 number of electron     594.0001519 magnetization      -1.6052114
 augmentation part      381.0685562 magnetization      -1.2988550

 Broyden mixing:
  rms(total) = 0.59529E+00    rms(broyden)= 0.58560E+00
  rms(prec ) = 0.65778E+00
  weight for this iteration     100.00

 eigenvalues of (default mixing * dielectric matrix)
  average eigenvalue GAMMA=   0.7679
  1.4970  0.8085  0.5809  0.1852

 Free energy of the ion-electron system (eV)
  ---------------------------------------------------
  alpha Z        PSCENC =       133.31883092
  Ewald energy   TEWEN  =    245783.34674009
  -Hartree energ DENC   =   -314048.28528972
  -exchange      EXHF   =         0.00000000
  -V(xc)+E(xc)   XCENC  =      2397.65033738
  PAW double counting   =     67964.80469569   -73651.39298813
  entropy T*S    EENTRO =         0.00000000
  eigenvalues    EBANDS =     -3854.61662408
  atomic energy  EATOM  =     75110.52157152
  Solvation  Ediel_sol  =         0.00000000
  ---------------------------------------------------
  free energy    TOTEN  =      -164.65272633 eV

  energy without entropy =     -164.65272633  energy(sigma->0) =     -164.65272633


--------------------------------------------------------------------------------------------------------




----------------------------------------- Iteration    1(  10)  ---------------------------------------


    POTLOK:  cpu time    0.5094: real time    0.5094
    SETDIJ:  cpu time    0.0206: real time    0.0206
    EDDIAG:  cpu time    2.2008: real time    2.2010
  RMM-DIIS:  cpu time   16.8268: real time   16.8279
    ORTHCH:  cpu time    0.3365: real time    0.3365
       DOS:  cpu time    0.0004: real time    0.0004
    CHARGE:  cpu time    0.5421: real time    0.5421
    MIXING:  cpu time    0.0159: real time    0.0159
    --------------------------------------------
      LOOP:  cpu time   20.4543: real time   20.4655

 eigenvalue-minimisations  :  1768
 total energy-change (2. order) : 0.5038391E+00  (-0.1260346E+00)
 number of electron     594.0001516 magnetization      -0.5132915
 augmentation part      380.9126122 magnetization      -0.2841638

 Broyden mixing:
  rms(total) = 0.31509E+00    rms(broyden)= 0.31429E+00
  rms(prec ) = 0.34815E+00
  weight for this iteration     100.00

 eigenvalues of (default mixing * dielectric matrix)
  average eigenvalue GAMMA=   0.8539
  1.5291  1.0253  1.0253  0.4950  0.1947

 Free energy of the ion-electron system (eV)
  ---------------------------------------------------
  alpha Z        PSCENC =       133.31883092
  Ewald energy   TEWEN  =    245783.34674009
  -Hartree energ DENC   =   -314057.07939727
  -exchange      EXHF   =         0.00000000
  -V(xc)+E(xc)   XCENC  =      2397.53854499
  PAW double counting   =     68148.85658744   -73848.26122463
  entropy T*S    EENTRO =         0.00000000
  eigenvalues    EBANDS =     -3832.39054027
  atomic energy  EATOM  =     75110.52157152
  Solvation  Ediel_sol  =         0.00000000
  ---------------------------------------------------
  free energy    TOTEN  =      -164.14888720 eV

  energy without entropy =     -164.14888720  energy(sigma->0) =     -164.14888720


--------------------------------------------------------------------------------------------------------




----------------------------------------- Iteration    1(  11)  ---------------------------------------


    POTLOK:  cpu time    0.5081: real time    0.5081
    SETDIJ:  cpu time    0.0207: real time    0.0207
    EDDIAG:  cpu time    2.1998: real time    2.1999
  RMM-DIIS:  cpu time   16.8885: real time   16.8897
    ORTHCH:  cpu time    0.3362: real time    0.3362
       DOS:  cpu time    0.0004: real time    0.0004
    CHARGE:  cpu time    0.5401: real time    0.5401
    MIXING:  cpu time    0.0167: real time    0.0167
    --------------------------------------------
      LOOP:  cpu time   20.5122: real time   20.5385

 eigenvalue-minimisations  :  1765
 total energy-change (2. order) : 0.1072975E+00  (-0.3305296E-01)
 number of electron     594.0001515 magnetization      -0.0742948
 augmentation part      380.5655871 magnetization       0.0343866

 Broyden mixing:
  rms(total) = 0.24465E+00    rms(broyden)= 0.24458E+00
  rms(prec ) = 0.28309E+00
  weight for this iteration     100.00

 eigenvalues of (default mixing * dielectric matrix)
  average eigenvalue GAMMA=   0.8881
  1.8373  1.2963  1.0061  0.1937  0.5535  0.4414

 Free energy of the ion-electron system (eV)
  ---------------------------------------------------
  alpha Z        PSCENC =       133.31883092
  Ewald energy   TEWEN  =    245783.34674009
  -Hartree energ DENC   =   -314070.30939823
  -exchange      EXHF   =         0.00000000
  -V(xc)+E(xc)   XCENC  =      2397.23195849
  PAW double counting   =     68484.66244784   -74206.30955200
  entropy T*S    EENTRO =         0.00000000
  eigenvalues    EBANDS =     -3796.50418838
  atomic energy  EATOM  =     75110.52157152
  Solvation  Ediel_sol  =         0.00000000
  ---------------------------------------------------
  free energy    TOTEN  =      -164.04158975 eV

  energy without entropy =     -164.04158975  energy(sigma->0) =     -164.04158975


--------------------------------------------------------------------------------------------------------




----------------------------------------- Iteration    1(  12)  ---------------------------------------


    POTLOK:  cpu time    0.5082: real time    0.5082
    SETDIJ:  cpu time    0.0206: real time    0.0206
    EDDIAG:  cpu time    2.1994: real time    2.1995
  RMM-DIIS:  cpu time   16.8772: real time   16.8781
    ORTHCH:  cpu time    0.3357: real time    0.3358
       DOS:  cpu time    0.0004: real time    0.0004
    CHARGE:  cpu time    0.5394: real time    0.5394
    MIXING:  cpu time    0.0173: real time    0.0173
    --------------------------------------------
      LOOP:  cpu time   20.4998: real time   20.6671

 eigenvalue-minimisations  :  1768
 total energy-change (2. order) : 0.1379887E+00  (-0.1977930E-01)
 number of electron     594.0001517 magnetization      -0.0851619
 augmentation part      380.3426513 magnetization      -0.0798260

 Broyden mixing:
  rms(total) = 0.16884E+00    rms(broyden)= 0.16880E+00
  rms(prec ) = 0.19130E+00
  weight for this iteration     100.00

 eigenvalues of (default mixing * dielectric matrix)
  average eigenvalue GAMMA=   0.8901
  2.0976  1.1958  1.1958  0.5853  0.5853  0.1940  0.3768

 Free energy of the ion-electron system (eV)
  ---------------------------------------------------
  alpha Z        PSCENC =       133.31883092
  Ewald energy   TEWEN  =    245783.34674009
  -Hartree energ DENC   =   -314070.29446730
  -exchange      EXHF   =         0.00000000
  -V(xc)+E(xc)   XCENC  =      2396.68787801
  PAW double counting   =     68840.47439339   -74584.27837179
  entropy T*S    EENTRO =         0.00000000
  eigenvalues    EBANDS =     -3773.68017586
  atomic energy  EATOM  =     75110.52157152
  Solvation  Ediel_sol  =         0.00000000
  ---------------------------------------------------
  free energy    TOTEN  =      -163.90360102 eV

  energy without entropy =     -163.90360102  energy(sigma->0) =     -163.90360102


--------------------------------------------------------------------------------------------------------




----------------------------------------- Iteration    1(  13)  ---------------------------------------


    POTLOK:  cpu time    0.5076: real time    0.5076
    SETDIJ:  cpu time    0.0208: real time    0.0208
    EDDIAG:  cpu time    2.1996: real time    2.1998
  RMM-DIIS:  cpu time   16.8984: real time   16.9000
    ORTHCH:  cpu time    0.3362: real time    0.3363
       DOS:  cpu time    0.0004: real time    0.0004
    CHARGE:  cpu time    0.5394: real time    0.5394
    MIXING:  cpu time    0.0182: real time    0.0182
    --------------------------------------------
      LOOP:  cpu time   20.5224: real time   20.5356

 eigenvalue-minimisations  :  1767
 total energy-change (2. order) : 0.5499128E-01  (-0.6950460E-02)
 number of electron     594.0001515 magnetization      -0.1774682
 augmentation part      380.2913066 magnetization      -0.2130223

 Broyden mixing:
  rms(total) = 0.11659E+00    rms(broyden)= 0.11657E+00
  rms(prec ) = 0.12791E+00
  weight for this iteration     100.00

 eigenvalues of (default mixing * dielectric matrix)
  average eigenvalue GAMMA=   1.0668
  3.0739  1.4681  1.4681  0.7913  0.7157  0.1939  0.4756  0.3478

 Free energy of the ion-electron system (eV)
  ---------------------------------------------------
  alpha Z        PSCENC =       133.31883092
  Ewald energy   TEWEN  =    245783.34674009
  -Hartree energ DENC   =   -314071.93182000
  -exchange      EXHF   =         0.00000000
  -V(xc)+E(xc)   XCENC  =      2396.15051527
  PAW double counting   =     69085.36374336   -74843.27309713
  entropy T*S    EENTRO =         0.00000000
  eigenvalues    EBANDS =     -3757.34509377
  atomic energy  EATOM  =     75110.52157152
  Solvation  Ediel_sol  =         0.00000000
  ---------------------------------------------------
  free energy    TOTEN  =      -163.84860974 eV

  energy without entropy =     -163.84860974  energy(sigma->0) =     -163.84860974


--------------------------------------------------------------------------------------------------------




----------------------------------------- Iteration    1(  14)  ---------------------------------------


    POTLOK:  cpu time    0.5096: real time    0.5096
    SETDIJ:  cpu time    0.0206: real time    0.0206
    EDDIAG:  cpu time    2.2002: real time    2.2003
  RMM-DIIS:  cpu time   16.8788: real time   16.8801
    ORTHCH:  cpu time    0.3368: real time    0.3368
       DOS:  cpu time    0.0004: real time    0.0004
    CHARGE:  cpu time    0.5031: real time    0.5032
    MIXING:  cpu time    0.0193: real time    0.0193
    --------------------------------------------
      LOOP:  cpu time   20.4706: real time   20.4831

 eigenvalue-minimisations  :  1765
 total energy-change (2. order) : 0.2333225E-01  (-0.3952097E-02)
 number of electron     594.0001517 magnetization      -0.0883455
 augmentation part      380.3078564 magnetization      -0.1234029

 Broyden mixing:
  rms(total) = 0.68604E-01    rms(broyden)= 0.68587E-01
  rms(prec ) = 0.77477E-01
  weight for this iteration     100.00

 eigenvalues of (default mixing * dielectric matrix)
  average eigenvalue GAMMA=   1.1641
  4.1082  1.7116  1.4052  0.8785  0.6924  0.6924  0.1939  0.4499  0.3447

 Free energy of the ion-electron system (eV)
  ---------------------------------------------------
  alpha Z        PSCENC =       133.31883092
  Ewald energy   TEWEN  =    245783.34674009
  -Hartree energ DENC   =   -314078.77795641
  -exchange      EXHF   =         0.00000000
  -V(xc)+E(xc)   XCENC  =      2395.12999681
  PAW double counting   =     69459.13546031   -75237.06351148
  entropy T*S    EENTRO =         0.00000000
  eigenvalues    EBANDS =     -3729.43640926
  atomic energy  EATOM  =     75110.52157152
  Solvation  Ediel_sol  =         0.00000000
  ---------------------------------------------------
  free energy    TOTEN  =      -163.82527749 eV

  energy without entropy =     -163.82527749  energy(sigma->0) =     -163.82527749


--------------------------------------------------------------------------------------------------------




----------------------------------------- Iteration    1(  15)  ---------------------------------------


    POTLOK:  cpu time    0.5084: real time    0.5084
    SETDIJ:  cpu time    0.0206: real time    0.0206
    EDDIAG:  cpu time    2.2012: real time    2.2013
  RMM-DIIS:  cpu time   16.8862: real time   16.8875
    ORTHCH:  cpu time    0.3347: real time    0.3348
       DOS:  cpu time    0.0005: real time    0.0005
    CHARGE:  cpu time    0.5238: real time    0.5239
    MIXING:  cpu time    0.0201: real time    0.0201
    --------------------------------------------
      LOOP:  cpu time   20.4973: real time   20.5105

 eigenvalue-minimisations  :  1767
 total energy-change (2. order) : 0.2093033E-02  (-0.1689368E-02)
 number of electron     594.0001516 magnetization       0.0168003
 augmentation part      380.3935783 magnetization       0.0063252

 Broyden mixing:
  rms(total) = 0.46828E-01    rms(broyden)= 0.46814E-01
  rms(prec ) = 0.57670E-01
  weight for this iteration     100.00

 eigenvalues of (default mixing * dielectric matrix)
  average eigenvalue GAMMA=   1.1416
  4.4134  1.7046  1.3200  0.9721  0.7948  0.7407  0.1939  0.5059  0.4288  0.3418

 Free energy of the ion-electron system (eV)
  ---------------------------------------------------
  alpha Z        PSCENC =       133.31883092
  Ewald energy   TEWEN  =    245783.34674009
  -Hartree energ DENC   =   -314068.01782427
  -exchange      EXHF   =         0.00000000
  -V(xc)+E(xc)   XCENC  =      2394.57867440
  PAW double counting   =     69635.76930585   -75422.70234486
  entropy T*S    EENTRO =         0.00000000
  eigenvalues    EBANDS =     -3730.63813811
  atomic energy  EATOM  =     75110.52157152
  Solvation  Ediel_sol  =         0.00000000
  ---------------------------------------------------
  free energy    TOTEN  =      -163.82318446 eV

  energy without entropy =     -163.82318446  energy(sigma->0) =     -163.82318446


--------------------------------------------------------------------------------------------------------




----------------------------------------- Iteration    1(  16)  ---------------------------------------


    POTLOK:  cpu time    0.5104: real time    0.5104
    SETDIJ:  cpu time    0.0207: real time    0.0207
    EDDIAG:  cpu time    2.2051: real time    2.2052
  RMM-DIIS:  cpu time   16.7954: real time   16.7979
    ORTHCH:  cpu time    0.3348: real time    0.3348
       DOS:  cpu time    0.0004: real time    0.0004
    CHARGE:  cpu time    0.5371: real time    0.5372
    MIXING:  cpu time    0.0209: real time    0.0209
    --------------------------------------------
      LOOP:  cpu time   20.4266: real time   20.4398

 eigenvalue-minimisations  :  1768
 total energy-change (2. order) : 0.3464164E-02  (-0.5009219E-03)
 number of electron     594.0001517 magnetization       0.0461715
 augmentation part      380.3812617 magnetization       0.0429419

 Broyden mixing:
  rms(total) = 0.35567E-01    rms(broyden)= 0.35560E-01
  rms(prec ) = 0.41758E-01
  weight for this iteration     100.00

 eigenvalues of (default mixing * dielectric matrix)
  average eigenvalue GAMMA=   1.1110
  4.4866  1.6756  1.2509  1.2509  0.8695  0.6703  0.6703  0.1939  0.4436  0.3421
  0.3676

 Free energy of the ion-electron system (eV)
  ---------------------------------------------------
  alpha Z        PSCENC =       133.31883092
  Ewald energy   TEWEN  =    245783.34674009
  -Hartree energ DENC   =   -314067.34335240
  -exchange      EXHF   =         0.00000000
  -V(xc)+E(xc)   XCENC  =      2394.44905332
  PAW double counting   =     69697.27307829   -75487.57590550
  entropy T*S    EENTRO =         0.00000000
  eigenvalues    EBANDS =     -3727.80973655
  atomic energy  EATOM  =     75110.52157152
  Solvation  Ediel_sol  =         0.00000000
  ---------------------------------------------------
  free energy    TOTEN  =      -163.81972029 eV

  energy without entropy =     -163.81972029  energy(sigma->0) =     -163.81972029


--------------------------------------------------------------------------------------------------------




----------------------------------------- Iteration    1(  17)  ---------------------------------------


    POTLOK:  cpu time    0.5107: real time    0.5107
    SETDIJ:  cpu time    0.0207: real time    0.0207
    EDDIAG:  cpu time    2.2034: real time    2.2035
  RMM-DIIS:  cpu time   16.7953: real time   16.7968
    ORTHCH:  cpu time    0.3352: real time    0.3353
       DOS:  cpu time    0.0005: real time    0.0005
    CHARGE:  cpu time    0.5399: real time    0.5399
    MIXING:  cpu time    0.0219: real time    0.0219
    --------------------------------------------
      LOOP:  cpu time   20.4294: real time   20.4536

 eigenvalue-minimisations  :  1768
 total energy-change (2. order) : 0.2012283E-02  (-0.1494508E-03)
 number of electron     594.0001516 magnetization       0.0073616
 augmentation part      380.3686096 magnetization       0.0055763

 Broyden mixing:
  rms(total) = 0.25590E-01    rms(broyden)= 0.25588E-01
  rms(prec ) = 0.28858E-01
  weight for this iteration     100.00

 eigenvalues of (default mixing * dielectric matrix)
  average eigenvalue GAMMA=   1.1515
  4.5982  2.0328  1.5059  1.3266  0.9131  0.7782  0.7782  0.1939  0.5472  0.4541
  0.3515  0.3386

 Free energy of the ion-electron system (eV)
  ---------------------------------------------------
  alpha Z        PSCENC =       133.31883092
  Ewald energy   TEWEN  =    245783.34674009
  -Hartree energ DENC   =   -314067.36396582
  -exchange      EXHF   =         0.00000000
  -V(xc)+E(xc)   XCENC  =      2394.42150646
  PAW double counting   =     69716.21087044   -75507.58556533
  entropy T*S    EENTRO =         0.00000000
  eigenvalues    EBANDS =     -3726.68769630
  atomic energy  EATOM  =     75110.52157152
  Solvation  Ediel_sol  =         0.00000000
  ---------------------------------------------------
  free energy    TOTEN  =      -163.81770801 eV

  energy without entropy =     -163.81770801  energy(sigma->0) =     -163.81770801


--------------------------------------------------------------------------------------------------------




----------------------------------------- Iteration    1(  18)  ---------------------------------------


    POTLOK:  cpu time    0.5097: real time    0.5098
    SETDIJ:  cpu time    0.0208: real time    0.0208
    EDDIAG:  cpu time    2.2025: real time    2.2027
  RMM-DIIS:  cpu time   15.5932: real time   15.5946
    ORTHCH:  cpu time    0.3357: real time    0.3357
       DOS:  cpu time    0.0004: real time    0.0004
    CHARGE:  cpu time    0.5479: real time    0.5479
    MIXING:  cpu time    0.0232: real time    0.0232
    --------------------------------------------
      LOOP:  cpu time   19.2353: real time   19.2473

 eigenvalue-minimisations  :  1763
 total energy-change (2. order) : 0.1256928E-02  (-0.2396568E-03)
 number of electron     594.0001516 magnetization      -0.0156185
 augmentation part      380.3942306 magnetization      -0.0121864

 Broyden mixing:
  rms(total) = 0.92794E-02    rms(broyden)= 0.92739E-02
  rms(prec ) = 0.10294E-01
  weight for this iteration     100.00

 eigenvalues of (default mixing * dielectric matrix)
  average eigenvalue GAMMA=   1.1954
  4.7158  2.6800  1.7134  1.2840  1.0236  0.8048  0.8048  0.1939  0.5913  0.5913
  0.4501  0.3508  0.3367

 Free energy of the ion-electron system (eV)
  ---------------------------------------------------
  alpha Z        PSCENC =       133.31883092
  Ewald energy   TEWEN  =    245783.34674009
  -Hartree energ DENC   =   -314062.62569515
  -exchange      EXHF   =         0.00000000
  -V(xc)+E(xc)   XCENC  =      2394.33702591
  PAW double counting   =     69736.32518492   -75528.56496825
  entropy T*S    EENTRO =         0.00000000
  eigenvalues    EBANDS =     -3730.47514105
  atomic energy  EATOM  =     75110.52157152
  Solvation  Ediel_sol  =         0.00000000
  ---------------------------------------------------
  free energy    TOTEN  =      -163.81645108 eV

  energy without entropy =     -163.81645108  energy(sigma->0) =     -163.81645108


--------------------------------------------------------------------------------------------------------




----------------------------------------- Iteration    1(  19)  ---------------------------------------


    POTLOK:  cpu time    0.5113: real time    0.5113
    SETDIJ:  cpu time    0.0208: real time    0.0208
    EDDIAG:  cpu time    2.2033: real time    2.2034
  RMM-DIIS:  cpu time   16.8244: real time   16.8255
    ORTHCH:  cpu time    0.3340: real time    0.3340
       DOS:  cpu time    0.0004: real time    0.0004
    CHARGE:  cpu time    0.5407: real time    0.5407
    MIXING:  cpu time    0.0242: real time    0.0242
    --------------------------------------------
      LOOP:  cpu time   20.4607: real time   20.4955

 eigenvalue-minimisations  :  1768
 total energy-change (2. order) : 0.4110242E-04  (-0.1205506E-03)
 number of electron     594.0001516 magnetization       0.0042502
 augmentation part      380.3991929 magnetization       0.0059708

 Broyden mixing:
  rms(total) = 0.51275E-02    rms(broyden)= 0.51230E-02
  rms(prec ) = 0.56044E-02
  weight for this iteration     100.00

 eigenvalues of (default mixing * dielectric matrix)
  average eigenvalue GAMMA=   1.2528
  4.7800  2.8523  1.9192  1.5793  1.1585  1.1585  0.1939  0.8192  0.7639  0.6647
  0.5143  0.4482  0.3499  0.3368

 Free energy of the ion-electron system (eV)
  ---------------------------------------------------
  alpha Z        PSCENC =       133.31883092
  Ewald energy   TEWEN  =    245783.34674009
  -Hartree energ DENC   =   -314061.55502835
  -exchange      EXHF   =         0.00000000
  -V(xc)+E(xc)   XCENC  =      2394.29257426
  PAW double counting   =     69749.52123983   -75542.41772178
  entropy T*S    EENTRO =         0.00000000
  eigenvalues    EBANDS =     -3730.84461647
  atomic energy  EATOM  =     75110.52157152
  Solvation  Ediel_sol  =         0.00000000
  ---------------------------------------------------
  free energy    TOTEN  =      -163.81640998 eV

  energy without entropy =     -163.81640998  energy(sigma->0) =     -163.81640998


--------------------------------------------------------------------------------------------------------




----------------------------------------- Iteration    1(  20)  ---------------------------------------


    POTLOK:  cpu time    0.5105: real time    0.5105
    SETDIJ:  cpu time    0.0208: real time    0.0208
    EDDIAG:  cpu time    2.2041: real time    2.2042
  RMM-DIIS:  cpu time   16.8280: real time   16.8288
    ORTHCH:  cpu time    0.3357: real time    0.3357
       DOS:  cpu time    0.0005: real time    0.0005
    CHARGE:  cpu time    0.5469: real time    0.5469
    MIXING:  cpu time    0.0259: real time    0.0259
    --------------------------------------------
      LOOP:  cpu time   20.4740: real time   20.4856

 eigenvalue-minimisations  :  1764
 total energy-change (2. order) : 0.1506791E-04  (-0.1536964E-04)
 number of electron     594.0001516 magnetization       0.0061292
 augmentation part      380.4061111 magnetization       0.0057790

 Broyden mixing:
  rms(total) = 0.23741E-02    rms(broyden)= 0.23736E-02
  rms(prec ) = 0.25306E-02
  weight for this iteration     100.00

 eigenvalues of (default mixing * dielectric matrix)
  average eigenvalue GAMMA=   1.2251
  4.8037  2.6517  2.1958  1.6459  1.2111  1.1021  0.1939  0.8087  0.8087  0.6538
  0.6538  0.5101  0.4502  0.3495  0.3368

 Free energy of the ion-electron system (eV)
  ---------------------------------------------------
  alpha Z        PSCENC =       133.31883092
  Ewald energy   TEWEN  =    245783.34674009
  -Hartree energ DENC   =   -314060.29830245
  -exchange      EXHF   =         0.00000000
  -V(xc)+E(xc)   XCENC  =      2394.26568802
  PAW double counting   =     69755.15354540   -75548.36737388
  entropy T*S    EENTRO =         0.00000000
  eigenvalues    EBANDS =     -3731.75709454
  atomic energy  EATOM  =     75110.52157152
  Solvation  Ediel_sol  =         0.00000000
  ---------------------------------------------------
  free energy    TOTEN  =      -163.81639491 eV

  energy without entropy =     -163.81639491  energy(sigma->0) =     -163.81639491


--------------------------------------------------------------------------------------------------------




----------------------------------------- Iteration    1(  21)  ---------------------------------------


    POTLOK:  cpu time    0.5104: real time    0.5104
    SETDIJ:  cpu time    0.0207: real time    0.0207
    EDDIAG:  cpu time    2.1995: real time    2.1996
  RMM-DIIS:  cpu time   10.8034: real time   10.8042
    ORTHCH:  cpu time    0.3335: real time    0.3335
       DOS:  cpu time    0.0002: real time    0.0002
    --------------------------------------------
      LOOP:  cpu time   13.8691: real time   13.8872

 eigenvalue-minimisations  :  1220
 total energy-change (2. order) : 0.1249136E-06  (-0.2561072E-05)
 number of electron     594.0001516 magnetization       0.0061292
 augmentation part      380.4061111 magnetization       0.0057790

 Free energy of the ion-electron system (eV)
  ---------------------------------------------------
  alpha Z        PSCENC =       133.31883092
  Ewald energy   TEWEN  =    245783.34674009
  -Hartree energ DENC   =   -314060.32592484
  -exchange      EXHF   =         0.00000000
  -V(xc)+E(xc)   XCENC  =      2394.26510089
  PAW double counting   =     69756.41583838   -75549.73110984
  entropy T*S    EENTRO =        -0.00000000
  eigenvalues    EBANDS =     -3731.62744192
  atomic energy  EATOM  =     75110.52157152
  Solvation  Ediel_sol  =         0.00000000
  ---------------------------------------------------
  free energy    TOTEN  =      -163.81639479 eV

  energy without entropy =     -163.81639479  energy(sigma->0) =     -163.81639479


--------------------------------------------------------------------------------------------------------




 average (electrostatic) potential at core
  the test charge radii are     0.9430
  (the norm of the test charge is              1.0000)
       1 -74.5135       2 -75.0578       3 -74.6389       4 -74.3919       5 -74.8331
       6 -74.4952       7 -74.9951       8 -74.4208       9 -74.5531      10 -74.9679
      11 -74.3303      12 -74.8408      13 -74.7044      14 -74.4811      15 -74.8950
      16 -74.5492      17 -74.5479      18 -74.6419      19 -74.3445      20 -74.4910
      21 -74.9289      22 -74.4296      23 -74.5743      24 -74.5284      25 -74.5590
      26 -74.7932      27 -74.6085      28 -74.5091      29 -74.4840      30 -75.0050
      31 -74.6376      32 -75.0165      33 -74.5077      34 -74.6247      35 -74.6892
      36 -74.5279      37 -74.4794      38 -75.0569      39 -74.6747      40 -74.5206
      41 -75.1251      42 -74.4994      43 -74.5179      44 -74.5110      45 -74.4723
      46 -74.6114      47 -74.3394      48 -74.4674      49 -74.6558      50 -74.6424
      51 -74.6953      52 -74.6346      53 -74.5205      54 -74.5793
 
 
 
 E-fermi :  -3.9366     XC(G=0):  -0.9088     alpha+bet : -0.5352


 spin component 1

 k-point     1 :       0.0000    0.0000    0.0000
  band No.  band energies     occupation 
      1     -11.7554      1.00000
      2     -10.7881      1.00000
      3     -10.6963      1.00000
      4     -10.4905      1.00000
      5      -9.6982      1.00000
      6      -9.6169      1.00000
      7      -9.5074      1.00000
      8      -9.2664      1.00000
      9      -9.1823      1.00000
     10      -8.8692      1.00000
     11      -8.6639      1.00000
     12      -8.6245      1.00000
     13      -8.4464      1.00000
     14      -8.3879      1.00000
     15      -8.3329      1.00000
     16      -8.2823      1.00000
     17      -8.2536      1.00000
     18      -8.1976      1.00000
     19      -8.1742      1.00000
     20      -8.1255      1.00000
     21      -8.0962      1.00000
     22      -7.9978      1.00000
     23      -7.9874      1.00000
     24      -7.9412      1.00000
     25      -7.9257      1.00000
     26      -7.8872      1.00000
     27      -7.8695      1.00000
     28      -7.8383      1.00000
     29      -7.8145      1.00000
     30      -7.7880      1.00000
     31      -7.7660      1.00000
     32      -7.7199      1.00000
     33      -7.6927      1.00000
     34      -7.6783      1.00000
     35      -7.6688      1.00000
     36      -7.6389      1.00000
     37      -7.6008      1.00000
     38      -7.5709      1.00000
     39      -7.5512      1.00000
     40      -7.5229      1.00000
     41      -7.4966      1.00000
     42      -7.4895      1.00000
     43      -7.4720      1.00000
     44      -7.4563      1.00000
     45      -7.4307      1.00000
     46      -7.3985      1.00000
     47      -7.3402      1.00000
     48      -7.2829      1.00000
     49      -7.2705      1.00000
     50      -7.2400      1.00000
     51      -7.2347      1.00000
     52      -7.2033      1.00000
     53      -7.1736      1.00000
     54      -7.1587      1.00000
     55      -7.1537      1.00000
     56      -7.1486      1.00000
     57      -7.1263      1.00000
     58      -7.1076      1.00000
     59      -7.0981      1.00000
     60      -7.0819      1.00000
     61      -7.0667      1.00000
     62      -7.0515      1.00000
     63      -7.0410      1.00000
     64      -7.0276      1.00000
     65      -7.0058      1.00000
     66      -6.9861      1.00000
     67      -6.9726      1.00000
     68      -6.9638      1.00000
     69      -6.9555      1.00000
     70      -6.9448      1.00000
     71      -6.9331      1.00000
     72      -6.9203      1.00000
     73      -6.9069      1.00000
     74      -6.8922      1.00000
     75      -6.8770      1.00000
     76      -6.8722      1.00000
     77      -6.8663      1.00000
     78      -6.8452      1.00000
     79      -6.8366      1.00000
     80      -6.8305      1.00000
     81      -6.8259      1.00000
     82      -6.8000      1.00000
     83      -6.7875      1.00000
     84      -6.7751      1.00000
     85      -6.7611      1.00000
     86      -6.7560      1.00000
     87      -6.7519      1.00000
     88      -6.7413      1.00000
     89      -6.7337      1.00000
     90      -6.7181      1.00000
     91      -6.7103      1.00000
     92      -6.6964      1.00000
     93      -6.6692      1.00000
     94      -6.6637      1.00000
     95      -6.6371      1.00000
     96      -6.6362      1.00000
     97      -6.6276      1.00000
     98      -6.6051      1.00000
     99      -6.5960      1.00000
    100      -6.5944      1.00000
    101      -6.5721      1.00000
    102      -6.5603      1.00000
    103      -6.5417      1.00000
    104      -6.5286      1.00000
    105      -6.5250      1.00000
    106      -6.5192      1.00000
    107      -6.4939      1.00000
    108      -6.4881      1.00000
    109      -6.4758      1.00000
    110      -6.4664      1.00000
    111      -6.4532      1.00000
    112      -6.4370      1.00000
    113      -6.4236      1.00000
    114      -6.4061      1.00000
    115      -6.3947      1.00000
    116      -6.3827      1.00000
    117      -6.3763      1.00000
    118      -6.3642      1.00000
    119      -6.3584      1.00000
    120      -6.3263      1.00000
    121      -6.3189      1.00000
    122      -6.3150      1.00000
    123      -6.3057      1.00000
    124      -6.2848      1.00000
    125      -6.2689      1.00000
    126      -6.2576      1.00000
    127      -6.2460      1.00000
    128      -6.2393      1.00000
    129      -6.2295      1.00000
    130      -6.2169      1.00000
    131      -6.2145      1.00000
    132      -6.2036      1.00000
    133      -6.1936      1.00000
    134      -6.1820      1.00000
    135      -6.1690      1.00000
    136      -6.1589      1.00000
    137      -6.1465      1.00000
    138      -6.1385      1.00000
    139      -6.1249      1.00000
    140      -6.1166      1.00000
    141      -6.1060      1.00000
    142      -6.0986      1.00000
    143      -6.0911      1.00000
    144      -6.0818      1.00000
    145      -6.0680      1.00000
    146      -6.0508      1.00000
    147      -6.0326      1.00000
    148      -6.0202      1.00000
    149      -6.0110      1.00000
    150      -6.0049      1.00000
    151      -5.9888      1.00000
    152      -5.9749      1.00000
    153      -5.9706      1.00000
    154      -5.9632      1.00000
    155      -5.9561      1.00000
    156      -5.9500      1.00000
    157      -5.9370      1.00000
    158      -5.9292      1.00000
    159      -5.9202      1.00000
    160      -5.9082      1.00000
    161      -5.8977      1.00000
    162      -5.8918      1.00000
    163      -5.8883      1.00000
    164      -5.8823      1.00000
    165      -5.8679      1.00000
    166      -5.8509      1.00000
    167      -5.8422      1.00000
    168      -5.8339      1.00000
    169      -5.8252      1.00000
    170      -5.8251      1.00000
    171      -5.8100      1.00000
    172      -5.8081      1.00000
    173      -5.7888      1.00000
    174      -5.7844      1.00000
    175      -5.7822      1.00000
    176      -5.7644      1.00000
    177      -5.7638      1.00000
    178      -5.7566      1.00000
    179      -5.7493      1.00000
    180      -5.7361      1.00000
    181      -5.7281      1.00000
    182      -5.7154      1.00000
    183      -5.7094      1.00000
    184      -5.7006      1.00000
    185      -5.6971      1.00000
    186      -5.6911      1.00000
    187      -5.6854      1.00000
    188      -5.6739      1.00000
    189      -5.6621      1.00000
    190      -5.6593      1.00000
    191      -5.6551      1.00000
    192      -5.6421      1.00000
    193      -5.6373      1.00000
    194      -5.6340      1.00000
    195      -5.6265      1.00000
    196      -5.6224      1.00000
    197      -5.6142      1.00000
    198      -5.6045      1.00000
    199      -5.6034      1.00000
    200      -5.5972      1.00000
    201      -5.5865      1.00000
    202      -5.5745      1.00000
    203      -5.5659      1.00000
    204      -5.5646      1.00000
    205      -5.5573      1.00000
    206      -5.5504      1.00000
    207      -5.5409      1.00000
    208      -5.5310      1.00000
    209      -5.5297      1.00000
    210      -5.5270      1.00000
    211      -5.5169      1.00000
    212      -5.5050      1.00000
    213      -5.5022      1.00000
    214      -5.5015      1.00000
    215      -5.4903      1.00000
    216      -5.4893      1.00000
    217      -5.4817      1.00000
    218      -5.4754      1.00000
    219      -5.4739      1.00000
    220      -5.4717      1.00000
    221      -5.4573      1.00000
    222      -5.4532      1.00000
    223      -5.4460      1.00000
    224      -5.4399      1.00000
    225      -5.4351      1.00000
    226      -5.4277      1.00000
    227      -5.4233      1.00000
    228      -5.4186      1.00000
    229      -5.4151      1.00000
    230      -5.4090      1.00000
    231      -5.4046      1.00000
    232      -5.3981      1.00000
    233      -5.3869      1.00000
    234      -5.3833      1.00000
    235      -5.3819      1.00000
    236      -5.3743      1.00000
    237      -5.3702      1.00000
    238      -5.3623      1.00000
    239      -5.3585      1.00000
    240      -5.3513      1.00000
    241      -5.3506      1.00000
    242      -5.3415      1.00000
    243      -5.3394      1.00000
    244      -5.3342      1.00000
    245      -5.3287      1.00000
    246      -5.3229      1.00000
    247      -5.3166      1.00000
    248      -5.3109      1.00000
    249      -5.3050      1.00000
    250      -5.3026      1.00000
    251      -5.2945      1.00000
    252      -5.2873      1.00000
    253      -5.2851      1.00000
    254      -5.2813      1.00000
    255      -5.2736      1.00000
    256      -5.2720      1.00000
    257      -5.2578      1.00000
    258      -5.2563      1.00000
    259      -5.2512      1.00000
    260      -5.2495      1.00000
    261      -5.2414      1.00000
    262      -5.2361      1.00000
    263      -5.2321      1.00000
    264      -5.2202      1.00000
    265      -5.2100      1.00000
    266      -5.2035      1.00000
    267      -5.2019      1.00000
    268      -5.1949      1.00000
    269      -5.1843      1.00000
    270      -5.1752      1.00000
    271      -5.1704      1.00000
    272      -5.1665      1.00000
    273      -5.1590      1.00000
    274      -5.1519      1.00000
    275      -5.1356      1.00000
    276      -5.1342      1.00000
    277      -5.1150      1.00000
    278      -5.1032      1.00000
    279      -5.0933      1.00000
    280      -5.0803      1.00000
    281      -5.0561      1.00000
    282      -5.0497      1.00000
    283      -5.0262      1.00000
    284      -5.0158      1.00000
    285      -4.9992      1.00000
    286      -4.9239      1.00000
    287      -4.8805      1.00000
    288      -4.6996      1.00000
    289      -4.5222      1.00000
    290      -4.4945      1.00000
    291      -4.3506      1.00000
    292      -4.3272      1.00000
    293      -4.2536      1.00000
    294      -4.2069      1.00000
    295      -4.0437      1.00000
    296      -3.9732      1.00000
    297      -3.9390      1.00000
    298      -3.6259      0.00000
    299      -3.5653      0.00000
    300      -3.3901      0.00000
    301      -3.3313      0.00000
    302      -3.1290      0.00000
    303      -3.0476      0.00000
    304      -2.9526      0.00000
    305      -2.8846      0.00000
    306      -2.8396      0.00000
    307      -2.7819      0.00000
    308      -2.7618      0.00000
    309      -2.7287      0.00000
    310      -2.6368      0.00000
    311      -2.5093      0.00000
    312      -2.4904      0.00000
    313      -2.3376      0.00000
    314      -2.2183      0.00000
    315      -2.1501      0.00000
    316      -2.1113      0.00000
    317      -1.9888      0.00000
    318      -1.9036      0.00000
    319      -1.8222      0.00000
    320      -1.6288      0.00000
    321      -1.6032      0.00000
    322      -1.4899      0.00000
    323      -1.4711      0.00000
    324      -1.3573      0.00000
    325      -1.2630      0.00000
    326      -1.1627      0.00000
    327      -1.0981      0.00000
    328      -1.0590      0.00000
    329      -0.9742      0.00000
    330      -0.8641      0.00000
    331      -0.8228      0.00000
    332      -0.6228      0.00000
    333      -0.5773      0.00000
    334      -0.4774      0.00000
    335      -0.3660      0.00000
    336      -0.2848      0.00000
    337      -0.2105      0.00000
    338      -0.1557      0.00000
    339      -0.0391      0.00000
    340       0.0048      0.00000
    341       0.0981      0.00000
    342       0.1403      0.00000
    343       0.1801      0.00000
    344       0.2578      0.00000
    345       0.3106      0.00000
    346       0.3809      0.00000
    347       0.4540      0.00000
    348       0.4858      0.00000
    349       0.5180      0.00000
    350       0.5404      0.00000
    351       0.5450      0.00000
    352       0.5754      0.00000
    353       0.6128      0.00000
    354       0.6340      0.00000
    355       0.6964      0.00000
    356       0.7218      0.00000
[...]
     0.000000000 25.196260054  0.000000000     0.000000000  0.039688430  0.000000000
     0.000000000  0.000000000 25.196260054     0.000000000  0.000000000  0.039688430

  length of vectors
    25.196260054 25.196260054 25.196260054     0.039688430  0.039688430  0.039688430


 FORCES acting on ions
    electron-ion (+dipol)            ewald-force                    non-local-force                 convergence-correction
 -----------------------------------------------------------------------------------------------
   0.161E+04 0.110E+04 -.168E+04   -.161E+04 -.110E+04 0.168E+04   -.411E+01 -.390E+01 0.362E+01   0.191E-01 0.246E-01 0.154E-01
   0.100E+04 0.116E+04 -.737E+03   -.100E+04 -.116E+04 0.737E+03   -.130E+00 0.631E+00 -.538E+00   0.129E-01 0.256E-01 -.140E-01
   0.262E+03 0.194E+04 -.160E+04   -.260E+03 -.194E+04 0.160E+04   -.239E+01 -.367E+01 0.189E+01   0.235E-01 0.217E-01 -.569E-02
   0.217E+04 0.115E+04 -.768E+03   -.216E+04 -.115E+04 0.766E+03   -.463E+01 -.255E+01 0.249E+01   0.936E-03 -.246E-01 0.477E-02
   0.134E+04 0.157E+03 0.299E+03   -.134E+04 -.155E+03 -.299E+03   -.154E+01 -.131E+01 0.633E-01   0.243E-01 0.582E-01 -.165E-01
   0.292E+03 0.773E+03 -.242E+04   -.292E+03 -.772E+03 0.241E+04   -.751E+00 -.202E+01 0.763E+01   0.384E-01 0.154E-01 0.307E-01
   0.122E+03 0.114E+04 0.477E+03   -.123E+03 -.114E+04 -.476E+03   0.326E+00 -.115E+01 -.927E+00   0.656E-02 0.840E-02 -.274E-01
   0.134E+04 -.597E+03 -.209E+04   -.134E+04 0.595E+03 0.209E+04   -.498E+01 0.232E+01 0.474E+01   0.191E-01 0.214E-01 0.387E-01
   -.472E+03 0.151E+04 0.199E+04   0.471E+03 -.151E+04 -.198E+04   0.143E+01 -.274E+01 -.372E+01   -.160E-02 0.137E-01 -.614E-02
   0.282E+03 -.147E+02 -.149E+04   -.282E+03 0.149E+02 0.149E+04   -.136E+00 -.262E+00 0.236E+01   0.551E-01 0.369E-01 -.604E-02
   0.257E+04 -.359E+03 -.482E+02   -.256E+04 0.357E+03 0.488E+02   -.736E+01 0.135E+01 -.548E+00   -.776E-02 0.264E-02 -.130E-01
   -.554E+03 0.817E+03 -.613E+03   0.553E+03 -.816E+03 0.612E+03   0.153E+01 -.127E+01 0.104E+01   0.232E-01 0.286E-01 -.227E-01
   -.222E+03 -.151E+04 -.157E+04   0.222E+03 0.151E+04 0.157E+04   -.478E+00 -.261E-01 -.209E+00   0.470E-02 0.314E-01 0.137E-02
   -.947E+03 0.852E+03 -.209E+04   0.946E+03 -.851E+03 0.209E+04   0.101E+01 -.617E+00 0.202E+01   0.353E-01 0.238E-03 0.209E-01
   -.128E+04 -.139E+03 -.439E+03   0.128E+04 0.139E+03 0.438E+03   0.171E+01 0.419E+00 0.899E+00   -.397E-03 0.137E-01 -.225E-01
   0.119E+04 -.161E+04 -.152E+04   -.119E+04 0.161E+04 0.152E+04   -.956E+00 0.353E+01 0.278E+01   -.301E-02 -.938E-02 -.155E-01
   0.202E+04 0.182E+03 0.147E+04   -.202E+04 -.182E+03 -.146E+04   -.320E+01 -.276E+00 -.139E+01   0.128E-01 0.909E-02 -.225E-01
   -.147E+04 0.221E+03 0.199E+04   0.147E+04 -.220E+03 -.199E+04   0.225E+01 -.807E+00 -.220E+01   -.130E-01 0.195E-01 0.125E-01
   -.230E+03 -.891E+03 -.236E+04   0.229E+03 0.888E+03 0.235E+04   0.721E-01 0.306E+01 0.684E+01   0.532E-02 0.372E-01 0.212E-01
   -.253E+04 0.516E+03 0.890E+02   0.252E+04 -.513E+03 -.888E+02   0.719E+01 -.234E+01 -.168E+00   0.575E-02 0.173E-01 -.318E-02
   0.294E+03 0.117E+03 0.137E+04   -.294E+03 -.118E+03 -.137E+04   -.195E+00 0.170E+00 -.207E+01   0.273E-01 0.328E-01 -.150E-01
   0.221E+04 0.118E+04 0.599E+03   -.220E+04 -.118E+04 -.597E+03   -.546E+01 -.250E+01 -.188E+01   0.103E-01 0.128E-01 -.372E-02
   -.188E+04 0.953E+03 -.138E+04   0.188E+04 -.951E+03 0.137E+04   0.421E+01 -.224E+01 0.205E+01   0.109E-01 0.915E-02 -.923E-02
   0.200E+04 -.114E+04 0.978E+03   -.200E+04 0.113E+04 -.976E+03   -.255E+01 0.177E+01 -.132E+01   0.107E-01 0.738E-02 -.173E-01
   0.130E+04 0.222E+04 0.820E+01   -.129E+04 -.221E+04 -.965E+01   -.249E+01 -.468E+01 0.147E+01   0.611E-02 -.141E-01 -.825E-02
   0.677E+03 -.221E+04 -.635E+03   -.677E+03 0.221E+04 0.635E+03   -.178E+00 0.234E+01 -.103E+00   0.810E-02 0.152E-01 -.136E-01
   0.203E+04 -.338E+03 -.117E+04   -.203E+04 0.339E+03 0.117E+04   -.743E-01 -.284E+00 0.170E+01   -.542E-01 0.921E-02 -.990E-03
   -.110E+04 0.205E+04 -.114E+04   0.110E+04 -.205E+04 0.113E+04   0.262E+01 -.460E+01 0.312E+01   0.277E-01 -.385E-02 -.991E-02
   0.127E+04 -.229E+04 0.283E+03   -.127E+04 0.228E+04 -.283E+03   -.292E+01 0.821E+01 0.568E-01   -.225E-01 -.122E-01 -.566E-02
   0.387E+03 -.453E+03 -.463E+03   -.386E+03 0.453E+03 0.464E+03   -.298E+00 0.157E+00 -.504E+00   0.204E-01 0.324E-01 -.110E-01
   0.183E+03 0.242E+04 -.502E+03   -.183E+03 -.241E+04 0.502E+03   0.838E-02 -.369E+01 0.209E+00   0.138E-01 0.734E-02 -.153E-01
   0.445E+03 -.109E+04 0.687E+03   -.445E+03 0.109E+04 -.685E+03   -.396E+00 0.126E+01 -.114E+01   0.178E-01 0.280E-01 -.598E-02
   0.920E+03 0.828E+03 0.226E+04   -.917E+03 -.824E+03 -.226E+04   -.270E+01 -.339E+01 -.666E+01   0.953E-02 0.175E-01 -.157E-01
   0.112E+04 0.171E+04 0.136E+04   -.112E+04 -.171E+04 -.136E+04   -.805E+00 -.154E+01 -.106E+01   -.245E-02 0.400E-03 -.316E-01
   0.190E+04 -.142E+04 -.476E+03   -.189E+04 0.141E+04 0.476E+03   -.104E+01 0.154E+01 0.290E+00   0.411E-02 0.189E-01 -.802E-02
   0.641E+03 -.190E+04 0.164E+04   -.639E+03 0.190E+04 -.164E+04   -.232E+01 0.545E+01 -.401E+01   0.841E-02 0.892E-02 -.757E-02
   -.363E+03 -.248E+04 -.766E+03   0.364E+03 0.247E+04 0.764E+03   -.843E+00 0.853E+01 0.214E+01   0.101E-01 -.214E-01 0.119E-01
   -.690E+03 0.138E+02 0.646E+03   0.690E+03 -.141E+02 -.645E+03   -.405E-01 0.309E+00 -.989E+00   0.659E-02 0.168E-01 0.257E-02
   -.184E+04 0.144E+04 0.133E+03   0.184E+04 -.144E+04 -.132E+03   0.109E-02 0.221E-01 -.292E+00   0.286E-01 0.511E-02 -.119E-01
   -.223E+04 -.534E+03 -.117E+04   0.223E+04 0.533E+03 0.117E+04   0.669E+01 0.154E+01 0.358E+01   -.526E-02 0.165E-02 0.418E-02
   -.643E+03 -.129E+04 -.563E+01   0.642E+03 0.128E+04 0.571E+01   0.133E+01 0.151E+01 -.813E-01   0.747E-02 0.198E-01 -.436E-02
   0.104E+04 -.799E+03 0.215E+04   -.104E+04 0.797E+03 -.215E+04   -.142E+01 0.168E+01 -.401E+01   0.137E-01 0.171E-01 0.765E-02
   -.378E+03 -.230E+04 0.975E+03   0.378E+03 0.230E+04 -.975E+03   0.256E+00 0.521E+01 -.113E+00   0.529E-01 -.418E-01 -.612E-01
   -.123E+04 -.571E+03 -.198E+04   0.123E+04 0.570E+03 0.198E+04   0.872E+00 0.345E+00 0.144E+01   -.122E-01 0.655E-02 -.813E-02
   -.231E+02 0.242E+04 0.992E+03   0.233E+02 -.241E+04 -.989E+03   -.284E+00 -.621E+01 -.232E+01   0.298E-02 0.906E-02 -.155E-01
   -.150E+04 -.168E+04 -.111E+04   0.150E+04 0.168E+04 0.111E+04   0.252E+01 0.313E+01 0.103E+01   -.455E-02 -.163E-01 -.112E-01
   -.111E+04 0.231E+04 0.280E+03   0.111E+04 -.230E+04 -.279E+03   0.202E+01 -.728E+01 -.284E+00   0.171E-01 -.211E-02 -.193E-01
   -.463E+03 -.123E+02 0.253E+04   0.462E+03 0.119E+02 -.252E+04   0.122E+01 0.396E+00 -.748E+01   0.150E-02 0.184E-01 -.232E-02
   -.137E+04 0.146E+04 0.126E+04   0.137E+04 -.146E+04 -.126E+04   0.108E+01 -.105E+01 -.613E+00   0.178E-02 0.250E-01 -.449E-02
   -.638E+03 -.121E+04 0.200E+04   0.637E+03 0.120E+04 -.200E+04   0.665E+00 0.987E+00 -.150E+01   0.610E-02 -.633E-02 -.233E-01
   -.158E+04 -.110E+04 0.151E+04   0.158E+04 0.110E+04 -.151E+04   0.236E+01 0.174E+01 -.208E+01   0.325E-02 -.220E-01 0.114E-01
   -.211E+04 0.332E+03 0.124E+04   0.211E+04 -.332E+03 -.124E+04   0.313E+01 0.989E-01 -.195E+01   -.542E-02 0.184E-01 0.681E-02
   -.147E+04 -.209E+04 0.511E+03   0.147E+04 0.208E+04 -.509E+03   0.342E+01 0.632E+01 -.206E+01   0.580E-02 -.149E-01 0.111E-01
   -.228E+04 -.982E+03 0.465E+03   0.228E+04 0.981E+03 -.464E+03   0.378E+01 0.691E+00 -.169E+01   -.624E-02 0.107E-01 0.482E-02
 -----------------------------------------------------------------------------------------------
   0.252E+01 -.486E+01 0.759E+00   0.455E-12 -.432E-11 -.534E-11   -.297E+01 0.430E+01 -.442E+00   0.482E+00 0.545E+00 -.310E+00
 
 
 POSITION                                       TOTAL-FORCE (eV/Angst)
 -----------------------------------------------------------------------------------
     10.04953     10.94452     16.05628        -0.021530     -0.004124      0.020009
     11.02943     10.90367     13.85590        -0.017240     -0.061690     -0.004374
     12.33366      9.84212     15.66884        -0.009734     -0.012034      0.034202
      8.64438     10.70277     13.62266        -0.009539      0.017027     -0.008915
     10.21619     12.27294     11.80412        -0.018403     -0.024114     -0.030916
     11.97642     11.30060     17.68264        -0.047253     -0.011742     -0.009821
     12.16624     10.77075     11.67862        -0.014641      0.001011     -0.016084
     10.42608     13.16584     17.10823        -0.022588     -0.026171     -0.013281
     12.75513     10.34743      8.91666         0.003476     -0.020764     -0.012721
     12.08699     12.40328     15.55250        -0.033722     -0.003176      0.032919
      8.00997     12.82734     12.31469        -0.017838      0.007784     -0.007036
     13.49923     11.25044     13.83764         0.011126     -0.003991      0.026699
     13.29522     14.77554     15.10867         0.015132     -0.006207      0.001697
     14.14220     11.23101     16.49212        -0.000023      0.007392     -0.000581
     15.22402     12.92466     13.56300         0.005051     -0.011060      0.001573
     10.87933     14.61778     15.21267        -0.013146      0.028228      0.022731
      9.09892     12.16325      9.55354         0.013907     -0.008484      0.003021
     14.36166     12.32401      9.25118         0.019129      0.013652     -0.028678
     12.96651     13.64176     17.33301        -0.000778     -0.009019     -0.008797
     17.53305     12.04038     13.06967         0.017632     -0.003904     -0.005780
     11.76642     12.35753      9.80690        -0.011549     -0.000126      0.013308
      8.41106     10.56553     11.23058         0.003662      0.005497      0.012488
     16.15179     11.28949     15.11369         0.001021      0.003283      0.012639
      9.33780     14.37997     10.46700        -0.006617      0.007802     -0.015686
     10.26315      9.25558     12.21240        -0.012375      0.009925      0.009092
     11.76962     15.85716     13.29995         0.016424     -0.012117      0.012148
      9.48212     12.77935     14.50574        -0.000277      0.017021      0.010097
     14.60023      9.30681     14.71944         0.009868     -0.014782     -0.001472
     10.34064     16.46260     11.46990         0.019375      0.015629     -0.021071
     11.98760     13.24097     13.32777         0.008237      0.038947     -0.029479
     12.47976      8.94144     13.35938         0.007211     -0.053791     -0.000767
     11.69953     14.40683     11.20527        -0.020865     -0.026096      0.008929
     10.63753     11.31196      7.85735         0.009403      0.000464     -0.002360
     10.48590     10.05518      9.93799        -0.025698      0.001593      0.003120
      9.69922     14.56620     12.90614        -0.005688      0.009987      0.026099
     11.14928     15.87837      9.31104        -0.002790     -0.005229     -0.015476
     13.86873     16.92092     13.82630         0.028664      0.029378     -0.025601
     13.64538     12.64432     11.57799         0.014311      0.010262     -0.017670
     15.72137     10.46101     12.82442         0.000732      0.001228      0.012949
     17.22158     13.57370     14.88201         0.036832      0.007307     -0.011779
     13.89091     14.80146     12.68612        -0.008392     -0.011194     -0.006010
     10.55815     13.77305      8.27171        -0.005151      0.013458      0.015743
     13.16508     16.31816     10.87511        -0.035051      0.044114      0.034180
     15.08215     13.42891     16.04509         0.029803      0.005265      0.035725
     12.48086      8.63447     10.79708         0.005309     -0.027715     -0.003466
     15.62542     15.34419     14.42369         0.011861      0.026983     -0.007293
     14.55984      8.44412     12.27069        -0.012253     -0.001932      0.007822
     12.68523     12.54605      7.51742        -0.010428      0.003175     -0.010870
     14.44140     10.31407     10.71922         0.016187     -0.026651     -0.008407
     13.05716     14.45232      9.03531        -0.009530     -0.000057     -0.010153
     15.02581     14.48323     10.51034         0.011787      0.015528      0.007416
     16.01886     12.26783     11.15975         0.044483     -0.000036     -0.002502
     15.50998     16.42608     12.04101         0.027494      0.020333     -0.015916
     16.78534     14.36006     12.42254         0.004983      0.023934     -0.011645
 -----------------------------------------------------------------------------------
    total drift:                                0.024878     -0.009058      0.006953


--------------------------------------------------------------------------------------------------------



  FREE ENERGIE OF THE ION-ELECTRON SYSTEM (eV)
  ---------------------------------------------------
  free  energy   TOTEN  =      -164.05126412 eV

  energy  without entropy=     -164.05126412  energy(sigma->0) =     -164.05126412
 
 d Force = 0.6619676E-02[ 0.506E-02, 0.818E-02]  d Energy = 0.6777047E-02-0.157E-03
 d Force = 0.4750377E+02[ 0.477E+02, 0.473E+02]  d Ewald  = 0.4750404E+02-0.274E-03


--------------------------------------------------------------------------------------------------------


    POTLOK:  cpu time    0.5349: real time    0.5349


--------------------------------------------------------------------------------------------------------


 Conjugate gradient step on ions:
 trial-energy change:   -0.006777  1 .order   -0.006620   -0.008177   -0.005062
  (g-gl).g = 0.506E-02      g.g   = 0.569E-02  gl.gl    = 0.517E-02
 g(Force)  = 0.569E-02   g(Stress)= 0.000E+00 ortho     = 0.116E-03
 gamma     =   0.97732
 trial     =   1.40879
 opt step  =   2.83144  (harmonic =   3.69813) maximal distance =0.02635329
 next E    =  -164.053982   (d E  =  -0.00950)


--------------------------------------------------------------------------------------------------------


  
 reached required accuracy - stopping structural energy minimisation
     LOOP+:  cpu time  300.3708: real time  300.6341
    4ORBIT:  cpu time    0.0000: real time    0.0000
 


 total charge     
 
# of ion     s       p       d       tot
----------------------------------------
  1        0.446   0.219   9.246   9.910
  2        0.468   0.410   9.186  10.065
  3        0.451   0.275   9.221   9.947
  4        0.466   0.216   9.231   9.913
  5        0.418   0.355   9.217   9.991
  6        0.463   0.203   9.249   9.915
  7        0.459   0.397   9.208  10.064
  8        0.457   0.190   9.257   9.905
  9        0.453   0.249   9.220   9.922
 10        0.461   0.407   9.204  10.071
 11        0.452   0.196   9.238   9.886
 12        0.437   0.353   9.208   9.998
 13        0.451   0.309   9.192   9.952
 14        0.454   0.258   9.218   9.930
 15        0.442   0.372   9.215  10.030
 16        0.458   0.264   9.228   9.950
 17        0.461   0.259   9.217   9.938
 18        0.459   0.275   9.210   9.944
 19        0.451   0.192   9.250   9.893
 20        0.478   0.211   9.245   9.934
 21        0.434   0.378   9.220  10.032
 22        0.483   0.220   9.231   9.933
 23        0.460   0.252   9.220   9.931
 24        0.453   0.257   9.211   9.922
 25        0.448   0.250   9.225   9.924
 26        0.464   0.312   9.208   9.984
 27        0.445   0.298   9.204   9.947
 28        0.461   0.228   9.223   9.913
 29        0.470   0.198   9.260   9.929
 30        0.439   0.377   9.188  10.003
 31        0.461   0.280   9.216   9.957
 32        0.439   0.384   9.201  10.024
 33        0.471   0.218   9.247   9.936
 34        0.460   0.288   9.202   9.950
 35        0.458   0.312   9.194   9.964
 36        0.474   0.224   9.242   9.941
 37        0.458   0.189   9.265   9.912
 38        0.450   0.382   9.190  10.022
 39        0.468   0.311   9.198   9.977
 40        0.472   0.213   9.246   9.931
 41        0.462   0.414   9.199  10.076
 42        0.462   0.237   9.223   9.921
 43        0.428   0.216   9.232   9.875
 44        0.464   0.268   9.209   9.941
 45        0.452   0.218   9.235   9.905
 46        0.460   0.271   9.216   9.947
 47        0.475   0.183   9.250   9.908
 48        0.474   0.208   9.243   9.924
 49        0.459   0.288   9.201   9.947
 50        0.455   0.274   9.207   9.936
 51        0.441   0.262   9.219   9.923
 52        0.457   0.276   9.219   9.952
 53        0.466   0.199   9.248   9.913
 54        0.448   0.245   9.225   9.918
------------------------------------------------
tot       24.657  14.743 497.977 537.377
 


 magnetization (x)
 
# of ion     s       p       d       tot
----------------------------------------
  1        0.000   0.000   0.000   0.000
  2       -0.000  -0.000   0.000  -0.000
  3        0.000   0.000  -0.000  -0.000
  4       -0.000   0.000  -0.000   0.000
  5       -0.000  -0.000  -0.000  -0.000
  6       -0.000  -0.000  -0.000  -0.000
  7        0.000  -0.000   0.000   0.000
  8       -0.000  -0.000  -0.000  -0.000
  9       -0.000  -0.000  -0.000  -0.000
 10       -0.000   0.000   0.000  -0.000
 11       -0.000   0.000  -0.000  -0.000
 12       -0.000   0.000  -0.000  -0.000
 13       -0.000  -0.000   0.000  -0.000
 14        0.000   0.000   0.000   0.000
 15       -0.000  -0.000  -0.000  -0.000
 16        0.000   0.000   0.000   0.000
 17        0.000  -0.000   0.000  -0.000
 18       -0.000   0.000  -0.000  -0.000
 19        0.000   0.000  -0.000   0.000
 20       -0.000   0.000  -0.000  -0.000
 21       -0.000  -0.000  -0.000  -0.000
 22       -0.000  -0.000  -0.000  -0.000
 23       -0.000   0.000  -0.000  -0.000
 24       -0.000   0.000   0.000   0.000
 25        0.000  -0.000  -0.000  -0.000
 26        0.000  -0.000  -0.000  -0.000
 27        0.000  -0.000  -0.000  -0.000
 28       -0.000   0.000  -0.000  -0.000
 29        0.000   0.000  -0.000  -0.000
 30       -0.000   0.000   0.000   0.000
 31        0.000  -0.000  -0.000  -0.000
 32       -0.000  -0.000   0.000   0.000
 33       -0.000  -0.000   0.000  -0.000
 34       -0.000  -0.000  -0.000  -0.000
 35        0.000   0.000  -0.000   0.000
 36       -0.000   0.000   0.000   0.000
 37        0.000  -0.000   0.000   0.000
 38       -0.000   0.000  -0.000  -0.000
 39       -0.000  -0.000  -0.000  -0.000
 40        0.000   0.000   0.000   0.000
 41        0.000  -0.000   0.000   0.000
 42        0.000  -0.000  -0.000  -0.000
 43        0.000  -0.000   0.000   0.000
 44       -0.000   0.000  -0.000  -0.000
 45        0.000   0.000  -0.000   0.000
 46        0.000  -0.000   0.000   0.000
 47        0.000   0.000   0.000   0.000
 48        0.000  -0.000   0.000   0.000
 49        0.000  -0.000  -0.000  -0.000
 50       -0.000   0.000  -0.000  -0.000
 51       -0.000   0.000  -0.000  -0.000
 52       -0.000  -0.000   0.000   0.000
 53        0.000   0.000  -0.000   0.000
 54       -0.000   0.000  -0.000  -0.000
------------------------------------------------
tot       -0.000   0.000  -0.000  -0.000
 

 total amount of memory used by VASP on root node   104886. kBytes
========================================================================

   base      :      30000. kBytes
   nonl-proj :       8447. kBytes
   fftplans  :      10421. kBytes
   grid      :      26282. kBytes
   one-center:         77. kBytes
   wavefun   :      29659. kBytes
 
  
  
 General timing and accounting informations for this job:
 ========================================================
  
                  Total CPU time used (sec):     3235.385
                            User time (sec):     3231.941
                          System time (sec):        3.444
                         Elapsed time (sec):     3240.160
  
                   Maximum memory used (kb):      174164.
                   Average memory used (kb):           0.
  
                          Minor page faults:        22359
                          Major page faults:           28
                 Voluntary context switches:         2338
