 vasp.5.4.4.18Apr17-6-g9f103f2a35 (build Jan 23 2020 13:04:52) gamma-only       
  
 executed on           IFC91_ompi date 2020.12.30  15:01:43
 running on   44 total cores
 distrk:  each k-point on   44 cores,    1 groups
 distr:  one band on NCORES_PER_BAND=  11 cores,    4 groups


--------------------------------------------------------------------------------------------------------


 INCAR:
 POTCAR:    PAW_PBE Cu 22Jun2005                  
 POTCAR:    PAW_PBE Cu 22Jun2005                  
   VRHFIN =Cu: d10 p1                                                           
   LEXCH  = PE                                                                  
   EATOM  =  1390.9808 eV,  102.2342 Ry                                         
                                                                                
   TITEL  = PAW_PBE Cu 22Jun2005                                                
   LULTRA =        F    use ultrasoft PP ?                                      
   IUNSCR =        1    unscreen: 0-lin 1-nonlin 2-no                           
   RPACOR =    2.000    partial core radius                                     
   POMASS =   63.546; ZVAL   =   11.000    mass and valenz                      
   RCORE  =    2.300    outmost cutoff radius                                   
   RWIGS  =    2.200; RWIGS  =    1.164    wigner-seitz radius (au A)           
   ENMAX  =  295.446; ENMIN  =  221.585 eV                                      
   ICORE  =        3    local potential                                         
   LCOR   =        T    correct aug charges                                     
   LPAW   =        T    paw PP                                                  
   EAUG   =  586.980                                                            
   DEXC   =    0.000                                                            
   RMAX   =    2.344    core radius for proj-oper                               
   RAUG   =    1.300    factor for augmentation sphere                          
   RDEP   =    2.302    radius for radial grids                                 
   RDEPT  =    1.771    core radius for aug-charge                              
                                                                                
   Atomic configuration                                                         
    9 entries                                                                   
     n  l   j            E        occ.                                          
     1  0  0.50     -8850.2468   2.0000                                         
     2  0  0.50     -1062.3498   2.0000                                         
     2  1  1.50      -916.8226   6.0000                                         
     3  0  0.50      -114.6929   2.0000                                         
     3  1  1.50       -72.1325   6.0000                                         
     3  2  2.50        -5.0394  10.0000                                         
     4  0  0.50        -4.6097   1.0000                                         
     4  1  0.50        -4.0817   0.0000                                         
     4  3  2.50        -1.3606   0.0000                                         
   Description                                                                  
     l       E           TYP  RCUT    TYP  RCUT                                 
     2     -5.0393973     23  2.200                                             
     2     10.8846608     23  2.200                                             
     0     -4.6097109     23  2.200                                             
     0      8.2520465     23  2.200                                             
     1     -2.7211652     23  2.200                                             
     1     21.7055443     23  2.200                                             
     3      2.7211652     23  2.300                                             
  local pseudopotential read in
  partial core-charges read in
  partial kinetic energy density read in
  atomic valenz-charges read in
  non local Contribution for L=           2  read in
    real space projection operators read in
  non local Contribution for L=           2  read in
    real space projection operators read in
  non local Contribution for L=           0  read in
    real space projection operators read in
  non local Contribution for L=           0  read in
    real space projection operators read in
  non local Contribution for L=           1  read in
    real space projection operators read in
  non local Contribution for L=           1  read in
    real space projection operators read in
    PAW grid and wavefunctions read in
 
   number of l-projection  operators is LMAX  =           6
   number of lm-projection operators is LMMAX =          18
 

 ----------------------------------------------------------------------------- 
|                                                                             |
|  ADVICE TO THIS USER RUNNING 'VASP/VAMP'   (HEAR YOUR MASTER'S VOICE ...):  |
|                                                                             |
|      You have a (more or less) 'large supercell' and for larger cells       |
|      it might be more efficient to use real space projection opertators     |
|      So try LREAL= Auto  in the INCAR   file.                               |
|      Mind:          For very  accurate calculation you might also keep the  |
|      reciprocal projection scheme          (i.e. LREAL=.FALSE.)             |
|                                                                             |
 ----------------------------------------------------------------------------- 

  PAW_PBE Cu 22Jun2005                  :
 energy of atom  1       EATOM=-1390.9808
 kinetic energy error for atom=    0.0452 (will be added to EATOM!!)
 
 
 POSCAR: unknown system                          
  positions in direct lattice
  No initial velocities read in
 exchange correlation table for  LEXCH =        8
   RHO(1)=    0.500       N(1)  =     2000
   RHO(2)=  100.500       N(2)  =     4000
 


--------------------------------------------------------------------------------------------------------


 ion  position               nearest neighbor table
   1  0.515  0.685  0.534-   4 2.39   9 2.42   8 2.43  10 2.48   3 2.51  24 2.66
   2  0.645  0.516  0.427-  15 2.36  13 2.54  12 2.55   7 2.62  42 2.62  21 2.64
   3  0.434  0.666  0.497-  24 2.38   6 2.49   1 2.51   8 2.56  14 2.59   4 2.63  20 2.77
   4  0.518  0.639  0.461-   1 2.39  12 2.43   6 2.44  16 2.47   3 2.63  27 2.68  10 2.70  24 2.78
                            17 2.78
   5  0.601  0.575  0.597-   9 2.47  19 2.47  11 2.49  27 2.50   7 2.54  26 2.62  18 2.64  25 2.72
                            10 2.72
   6  0.443  0.622  0.419-  14 2.42   4 2.44  17 2.46   3 2.49  16 2.52  22 2.52
   7  0.636  0.554  0.514-  27 2.47  15 2.48  11 2.52   5 2.54  21 2.61   2 2.62  12 2.64  18 2.66
                            10 2.70
   8  0.448  0.670  0.588-  24 2.42   1 2.43  23 2.48  20 2.49   3 2.56   9 2.59
   9  0.532  0.630  0.600-   1 2.42  25 2.46   5 2.47  24 2.51   8 2.59  26 2.59  23 2.60  10 2.70
                            27 2.73
  10  0.593  0.641  0.524-  27 2.30   1 2.48   4 2.70   7 2.70   9 2.70   5 2.72
  11  0.659  0.506  0.588-  18 2.34   5 2.49   7 2.52  19 2.63  21 2.68
  12  0.585  0.585  0.440-  15 2.39   4 2.43  27 2.55   2 2.55  17 2.60   7 2.64  13 2.72
  13  0.566  0.508  0.381-  17 2.47  42 2.48  44 2.49  54 2.50  15 2.51   2 2.54  12 2.72  40 2.73

  14  0.401  0.579  0.483-   6 2.42  20 2.43  47 2.45  51 2.46  16 2.54  24 2.54   3 2.59  22 2.63

  15  0.574  0.505  0.472-  54 2.34   2 2.36  12 2.39  27 2.40  21 2.46   7 2.48  42 2.48  18 2.49
                            45 2.51  13 2.51  53 2.58  16 2.77
  16  0.487  0.555  0.461-  17 2.38  27 2.45   4 2.47  54 2.50  22 2.51  53 2.51   6 2.52  51 2.53
                            14 2.54  24 2.57  15 2.77
  17  0.511  0.578  0.382-  16 2.38   6 2.46  13 2.47  44 2.53  12 2.60  22 2.77   4 2.78
  18  0.581  0.489  0.560-  11 2.34  19 2.41  21 2.42  46 2.46  53 2.48  15 2.49  38 2.53  26 2.54
                            45 2.60  27 2.63   5 2.64   7 2.66
  19  0.584  0.502  0.646-  18 2.41   5 2.47  25 2.52  26 2.54  46 2.55  11 2.63
  20  0.386  0.609  0.564-  24 2.43  14 2.43  50 2.47   8 2.49  23 2.63   3 2.77
  21  0.643  0.460  0.505-  18 2.42  15 2.46  48 2.46   7 2.61   2 2.64  11 2.68  42 2.68  45 2.74

  22  0.422  0.535  0.401-  44 2.42  51 2.45  49 2.46  16 2.51   6 2.52  14 2.63  17 2.77  43 2.79

  23  0.452  0.591  0.630-  26 2.41   8 2.48  24 2.54  50 2.55   9 2.60  52 2.60  25 2.62  20 2.63

  24  0.470  0.600  0.541-  27 2.38   3 2.38   8 2.42  20 2.43  50 2.47   9 2.51  23 2.54  14 2.54
                            16 2.57  26 2.65   1 2.66   4 2.78
  25  0.536  0.576  0.671-  26 2.33   9 2.46  19 2.52  23 2.62   5 2.72
  26  0.514  0.538  0.599-  25 2.33  52 2.37  23 2.41  53 2.44  27 2.46  46 2.51  19 2.54  18 2.54
                             9 2.59   5 2.62  50 2.64  24 2.65
  27  0.549  0.570  0.523-  10 2.30  24 2.38  15 2.40  16 2.45  26 2.46   7 2.47   5 2.50  12 2.55
                            53 2.60  18 2.63   4 2.68   9 2.73
  28  0.413  0.359  0.541-  37 2.44  35 2.45  32 2.46  39 2.49  36 2.53  30 2.54
  29  0.545  0.361  0.435-  40 2.46  34 2.48  31 2.48  45 2.49  42 2.51  39 2.52  48 2.61
  30  0.394  0.370  0.451-  33 2.43  37 2.43  31 2.49  35 2.50  28 2.54  43 2.61  39 2.67  41 2.71

  31  0.464  0.354  0.397-  43 2.37  29 2.48  30 2.49  39 2.50  40 2.58  33 2.77
  32  0.498  0.376  0.562-  34 2.39  46 2.44  28 2.46  37 2.50  36 2.52  45 2.58  38 2.62  39 2.63

  33  0.375  0.389  0.368-  43 2.34  30 2.43  49 2.54  41 2.57  31 2.77
  34  0.558  0.331  0.518-  48 2.39  32 2.39  29 2.48  39 2.48  45 2.56  38 2.57
  35  0.370  0.431  0.513-  51 2.42  28 2.45  47 2.46  41 2.49  30 2.50  36 2.52  37 2.63
  36  0.435  0.441  0.576-  50 2.46  46 2.50  35 2.52  32 2.52  28 2.53  52 2.56  37 2.58  53 2.63

  37  0.460  0.414  0.490-  39 2.41  30 2.43  51 2.44  28 2.44  54 2.47  32 2.50  45 2.54  53 2.58
                            36 2.58  35 2.63  43 2.64
  38  0.589  0.399  0.573-  45 2.35  18 2.53  46 2.56  34 2.57  32 2.62  48 2.71
  39  0.475  0.328  0.483-  37 2.41  34 2.48  28 2.49  31 2.50  29 2.52  32 2.63  30 2.67
  40  0.525  0.419  0.369-  54 2.40  29 2.46  44 2.51  42 2.53  31 2.58  43 2.59  13 2.73
  41  0.359  0.458  0.428-  43 2.42  51 2.46  35 2.49  49 2.55  33 2.57  30 2.71
  42  0.598  0.434  0.422-  48 2.47  15 2.48  13 2.48  29 2.51  40 2.53  45 2.55   2 2.62  21 2.68
                            54 2.78
  43  0.438  0.435  0.399-  54 2.33  33 2.34  49 2.34  31 2.37  41 2.42  44 2.47  40 2.59  30 2.61
                            37 2.64  51 2.76  22 2.79
  44  0.482  0.496  0.351-  22 2.42  43 2.47  13 2.49  40 2.51  17 2.53  54 2.56  49 2.63
  45  0.551  0.422  0.501-  38 2.35  48 2.43  29 2.49  53 2.50  15 2.51  37 2.54  42 2.55  54 2.55
                            34 2.56  32 2.58  18 2.60  21 2.74
  46  0.519  0.448  0.609-  32 2.44  18 2.46  52 2.49  36 2.50  26 2.51  19 2.55  38 2.56  53 2.66

  47  0.350  0.518  0.522-  51 2.41  50 2.43  14 2.45  35 2.46
  48  0.624  0.375  0.485-  34 2.39  45 2.43  21 2.46  42 2.47  29 2.61  38 2.71
  49  0.390  0.476  0.343-  43 2.34  22 2.46  33 2.54  41 2.55  44 2.63
  50  0.424  0.529  0.568-  47 2.43  36 2.46  20 2.47  24 2.47  52 2.48  23 2.55  53 2.59  51 2.62
                            26 2.64
  51  0.422  0.493  0.480-  47 2.41  35 2.42  37 2.44  53 2.45  22 2.45  14 2.46  41 2.46  16 2.53
                            50 2.62  54 2.66  43 2.76
  52  0.454  0.498  0.646-  26 2.37  50 2.48  46 2.49  36 2.56  23 2.60
  53  0.498  0.491  0.525-  26 2.44  51 2.45  18 2.48  45 2.50  16 2.51  54 2.53  37 2.58  15 2.58
                            50 2.59  27 2.60  36 2.63  46 2.66
  54  0.505  0.470  0.437-  43 2.33  15 2.34  40 2.40  37 2.47  16 2.50  13 2.50  53 2.53  45 2.55
                            44 2.56  51 2.66  42 2.78
 
  LATTYP: Found a simple cubic cell.
 ALAT       =    27.6224850000
  
  Lattice vectors:
  
 A1 = (  27.6224850000,   0.0000000000,   0.0000000000)
 A2 = (   0.0000000000,  27.6224850000,   0.0000000000)
 A3 = (   0.0000000000,   0.0000000000,  27.6224850000)


Analysis of symmetry for initial positions (statically):
=====================================================================
 Subroutine PRICEL returns:
 Original cell was already a primitive cell.
 

 Routine SETGRP: Setting up the symmetry group for a 
 simple cubic supercell.


 Subroutine GETGRP returns: Found  1 space group operations
 (whereof  1 operations were pure point group operations)
 out of a pool of 48 trial point group operations.


The static configuration has the point symmetry C_1 .


Analysis of symmetry for dynamics (positions and initial velocities):
=====================================================================
 Subroutine PRICEL returns:
 Original cell was already a primitive cell.
 

 Routine SETGRP: Setting up the symmetry group for a 
 simple cubic supercell.


 Subroutine GETGRP returns: Found  1 space group operations
 (whereof  1 operations were pure point group operations)
 out of a pool of 48 trial point group operations.


The dynamic configuration has the point symmetry C_1 .


Analysis of structural, dynamic, and magnetic symmetry:
=====================================================================
 Subroutine PRICEL returns:
 Original cell was already a primitive cell.
 

 Routine SETGRP: Setting up the symmetry group for a 
 simple cubic supercell.


 Subroutine GETGRP returns: Found  1 space group operations
 (whereof  1 operations were pure point group operations)
 out of a pool of 48 trial point group operations.


The magnetic configuration has the point symmetry C_1 .


 Subroutine INISYM returns: Found  1 space group operations
 (whereof  1 operations are pure point group operations),
 and found     1 'primitive' translations

 
 
 KPOINTS: Gamma-point only                        
  k-points in reciprocal lattice
Space group operators:
 irot       det(A)        alpha          n_x          n_y          n_z        tau_x        tau_y        tau_z
    1     1.000000     0.000000     1.000000     0.000000     0.000000     0.000000     0.000000     0.000000


--------------------------------------------------------------------------------------------------------




 Dimension of arrays:
   k-points           NKPTS =      1   k-points in BZ     NKDIM =      1   number of bands    NBANDS=    440
   number of dos      NEDOS =    301   number of ions     NIONS =     54
   non local maximal  LDIM  =      6   non local SUM 2l+1 LMDIM =     18
   total plane-waves  NPLWV = ******
   max r-space proj   IRMAX =      1   max aug-charges    IRDMAX=   2574
   dimension x,y,z NGX =   120 NGY =  120 NGZ =  120
   dimension x,y,z NGXF=   240 NGYF=  240 NGZF=  240
   support grid    NGXF=   240 NGYF=  240 NGZF=  240
   ions per type =              54
   NGX,Y,Z   is equivalent  to a cutoff of   7.22,  7.22,  7.22 a.u.
   NGXF,Y,Z  is equivalent  to a cutoff of  14.44, 14.44, 14.44 a.u.

 SYSTEM =  unknown system                          
 POSCAR =  unknown system                          

 Startparameter for this run:
   NWRITE =      2    write-flag & timer
   PREC   = normal    normal or accurate (medium, high low for compatibility)
   ISTART =      0    job   : 0-new  1-cont  2-samecut
   ICHARG =      2    charge: 1-file 2-atom 10-const
   ISPIN  =      2    spin polarized calculation?
   LNONCOLLINEAR =      F non collinear calculations
   LSORBIT =      F    spin-orbit coupling
   INIWAV =      1    electr: 0-lowe 1-rand  2-diag
   LASPH  =      F    aspherical Exc in radial PAW
   METAGGA=      F    non-selfconsistent MetaGGA calc.

 Electronic Relaxation 1
   ENCUT  =  295.4 eV  21.71 Ry    4.66 a.u.  38.71 38.71 38.71*2*pi/ulx,y,z
   ENINI  =  295.4     initial cutoff
   ENAUG  =  587.0 eV  augmentation charge cutoff
   NELM   =     60;   NELMIN=  2; NELMDL= -5     # of ELM steps 
   EDIFF  = 0.1E-04   stopping-criterion for ELM
   LREAL  =      F    real-space projection
   NLSPLINE    = F    spline interpolate recip. space projectors
   LCOMPAT=      F    compatible to vasp.4.4
   GGA_COMPAT  = T    GGA compatible to vasp.4.4-vasp.4.6
   LMAXPAW     = -100 max onsite density
   LMAXMIX     =    2 max onsite mixed and CHGCAR
   VOSKOWN=      0    Vosko Wilk Nusair interpolation
   ROPT   =    0.00000
 Ionic relaxation
   EDIFFG = -.1E+00   stopping-criterion for IOM
   NSW    =    101    number of steps for IOM
   NBLOCK =      1;   KBLOCK =    101    inner block; outer block 
   IBRION =      2    ionic relax: 0-MD 1-quasi-New 2-CG
   NFREE  =      1    steps in history (QN), initial steepest desc. (CG)
   ISIF   =      2    stress and relaxation
   IWAVPR =     11    prediction:  0-non 1-charg 2-wave 3-comb
   ISYM   =      2    0-nonsym 1-usesym 2-fastsym
   LCORR  =      T    Harris-Foulkes like correction to forces

   POTIM  = 0.5000    time-step for ionic-motion
   TEIN   =    0.0    initial temperature
   TEBEG  =    0.0;   TEEND  =   0.0 temperature during run
   SMASS  =  -3.00    Nose mass-parameter (am)
   estimated Nose-frequenzy (Omega)   =  0.10E-29 period in steps =****** mass=  -0.174E-25a.u.
   SCALEE = 1.0000    scale energy and forces
   NPACO  =    256;   APACO  = 16.0  distance and # of slots for P.C.
   PSTRESS=    0.0 pullay stress

  Mass of Ions in am
   POMASS =  63.55
  Ionic Valenz
   ZVAL   =  11.00
  Atomic Wigner-Seitz radii
   RWIGS  =  -1.00
  virtual crystal weights 
   VCA    =   1.00
   NELECT =     594.0000    total number of electrons
   NUPDOWN=      -1.0000    fix difference up-down

 DOS related values:
   EMIN   =  10.00;   EMAX   =-10.00  energy-range for DOS
   EFERMI =   0.00
   ISMEAR =     0;   SIGMA  =   0.00  broadening in eV -4-tet -1-fermi 0-gaus

 Electronic relaxation 2 (details)
   IALGO  =     38    algorithm
   LDIAG  =      T    sub-space diagonalisation (order eigenvalues)
   LSUBROT=      F    optimize rotation matrix (better conditioning)
   TURBO    =      0    0=normal 1=particle mesh
   IRESTART =      0    0=no restart 2=restart with 2 vectors
   NREBOOT  =      0    no. of reboots
   NMIN     =      0    reboot dimension
   EREF     =   0.00    reference energy to select bands
   IMIX   =      4    mixing-type and parameters
     AMIX     =   0.40;   BMIX     =  1.00
     AMIX_MAG =   1.60;   BMIX_MAG =  1.00
     AMIN     =   0.10
     WC   =   100.;   INIMIX=   1;  MIXPRE=   1;  MAXMIX= -45

 Intra band minimization:
   WEIMIN = 0.0010     energy-eigenvalue tresh-hold
   EBREAK =  0.57E-08  absolut break condition
   DEPER  =   0.30     relativ break condition  

   TIME   =   0.40     timestep for ELM

  volume/ion in A,a.u.               =     390.30      2633.85
  Fermi-wavevector in a.u.,A,eV,Ry     =   0.498204  0.941470  3.377070  0.248208
  Thomas-Fermi vector in A             =   1.505073
 
 Write flags
   LWAVE        =      F    write WAVECAR
   LDOWNSAMPLE  =      F    k-point downsampling of WAVECAR
   LCHARG       =      F    write CHGCAR
   LVTOT        =      F    write LOCPOT, total local potential
   LVHAR        =      F    write LOCPOT, Hartree potential only
   LELF         =      F    write electronic localiz. function (ELF)
   LORBIT       =     11    0 simple, 1 ext, 2 COOP (PROOUT), +10 PAW based schemes


 Dipole corrections
   LMONO  =      F    monopole corrections only (constant potential shift)
   LDIPOL =      F    correct potential (dipole corrections)
   IDIPOL =      0    1-x, 2-y, 3-z, 4-all directions 
   EPSILON=  1.0000000 bulk dielectric constant

 Exchange correlation treatment:
   GGA     =    PE    GGA type
   LEXCH   =     8    internal setting for exchange type
   VOSKOWN=      0    Vosko Wilk Nusair interpolation
   LHFCALC =     F    Hartree Fock is set to
   LHFONE  =     F    Hartree Fock one center treatment
   AEXX    =    0.0000 exact exchange contribution

 Linear response parameters
   LEPSILON=     F    determine dielectric tensor
   LRPA    =     F    only Hartree local field effects (RPA)
   LNABLA  =     F    use nabla operator in PAW spheres
   LVEL    =     F    velocity operator in full k-point grid
   LINTERFAST=   F  fast interpolation
   KINTER  =     0    interpolate to denser k-point grid
   CSHIFT  =0.1000    complex shift for real part using Kramers Kronig
   OMEGAMAX=  -1.0    maximum frequency
   DEG_THRESHOLD= 0.2000000E-02 threshold for treating states as degnerate
   RTIME   =   -0.100 relaxation time in fs
  (WPLASMAI=    0.000 imaginary part of plasma frequency in eV, 0.658/RTIME)
   DFIELD  = 0.0000000 0.0000000 0.0000000 field for delta impulse in time
 
 Orbital magnetization related:
   ORBITALMAG=     F  switch on orbital magnetization
   LCHIMAG   =     F  perturbation theory with respect to B field
   DQ        =  0.001000  dq finite difference perturbation B field
   LLRAUG    =     F  two centre corrections for induced B field



--------------------------------------------------------------------------------------------------------


 conjugate gradient relaxation of ions
 charge density and potential will be updated during run
 spin polarized calculation
 Variant of blocked Davidson
 Davidson routine will perform the subspace rotation
 perform sub-space diagonalisation
    after iterative eigenvector-optimisation
 modified Broyden-mixing scheme, WC =      100.0
 initial mixing is a Kerker type mixing with AMIX =  0.4000 and BMIX =      1.0000
 Hartree-type preconditioning will be used
 using additional bands          143
 reciprocal scheme for non local part
 use partial core corrections
 calculate Harris-corrections to forces 
   (improved forces if not selfconsistent)
 use gradient corrections 
 use of overlap-Matrix (Vanderbilt PP)
 Gauss-broadening in eV      SIGMA  =   0.00


--------------------------------------------------------------------------------------------------------


  energy-cutoff  :      295.45
  volume of cell :    21076.00
      direct lattice vectors                 reciprocal lattice vectors
    27.622485000  0.000000000  0.000000000     0.036202391  0.000000000  0.000000000
     0.000000000 27.622485000  0.000000000     0.000000000  0.036202391  0.000000000
     0.000000000  0.000000000 27.622485000     0.000000000  0.000000000  0.036202391

  length of vectors
    27.622485000 27.622485000 27.622485000     0.036202391  0.036202391  0.036202391


 
 k-points in units of 2pi/SCALE and weight: Gamma-point only                        
   0.00000000  0.00000000  0.00000000       1.000
 
 k-points in reciprocal lattice and weights: Gamma-point only                        
   0.00000000  0.00000000  0.00000000       1.000
 
 position of ions in fractional coordinates (direct lattice) 
   0.51505562  0.68521633  0.53407839
   0.64546557  0.51649546  0.42748321
   0.43423481  0.66581218  0.49703119
   0.51836825  0.63873424  0.46132909
   0.60142701  0.57472544  0.59690682
   0.44296260  0.62202999  0.41873044
   0.63585856  0.55378941  0.51426602
   0.44757048  0.67025187  0.58846672
   0.53150211  0.63023773  0.60008269
   0.59278825  0.64098002  0.52447393
   0.65934755  0.50608270  0.58828194
   0.58458836  0.58475740  0.43965234
   0.56631070  0.50759273  0.38131468
   0.40122796  0.57926465  0.48298725
   0.57354245  0.50514950  0.47184909
   0.48711990  0.55482375  0.46147410
   0.51070021  0.57774642  0.38176964
   0.58123811  0.48900033  0.56002665
   0.58371952  0.50202579  0.64616985
   0.38555667  0.60939923  0.56401810
   0.64278878  0.46003120  0.50460552
   0.42205728  0.53488443  0.40142960
   0.45168999  0.59061866  0.63007092
   0.46974453  0.60046386  0.54056399
   0.53620694  0.57592854  0.67058409
   0.51381897  0.53798275  0.59870507
   0.54854121  0.57048770  0.52337803
   0.41314074  0.35926973  0.54066445
   0.54506307  0.36131713  0.43455839
   0.39407022  0.36987253  0.45144216
   0.46392910  0.35358140  0.39678297
   0.49805781  0.37581369  0.56236667
   0.37470949  0.38885358  0.36778408
   0.55780265  0.33126168  0.51806495
   0.36965811  0.43144949  0.51321596
   0.43527907  0.44075132  0.57572865
   0.46022433  0.41379232  0.48966232
   0.58939508  0.39890485  0.57334835
   0.47529308  0.32811319  0.48303895
   0.52533827  0.41851899  0.36927373
   0.35852889  0.45828853  0.42782743
   0.59815105  0.43427196  0.42238686
   0.43801898  0.43532595  0.39930301
   0.48218733  0.49638114  0.35084692
   0.55122992  0.42202132  0.50091243
   0.51916536  0.44775689  0.60877471
   0.34968031  0.51801141  0.52155739
   0.62410635  0.37544828  0.48451396
   0.38961390  0.47607994  0.34277447
   0.42383266  0.52870267  0.56767271
   0.42216761  0.49279673  0.47970238
   0.45439453  0.49799062  0.64625370
   0.49832171  0.49109120  0.52530784
   0.50520796  0.46982115  0.43650519
 
 position of ions in cartesian coordinates  (Angst):
  14.22711614 18.92737780 14.75257232
  17.82936303 14.26688810 11.80814856
  11.99464453 18.39138695 13.72923659
  14.31861921 17.64342696 12.74305587
  16.61290856 15.87534485 16.48804968
  12.23572777 17.18201407 11.56637530
  17.56399354 15.29703967 14.20530542
  12.36300887 18.51402223 16.25491315
  14.68140906 17.40873224 16.57577510
  16.37428454 17.70546099 14.48727326
  18.21281781 13.97926179 16.24980906
  16.14778321 16.15245251 12.14429017
  15.64290882 14.02097257 10.53285903
  11.08291331 16.00072911 13.34130807
  15.84266772 13.95348449 13.03364441
  13.45546213 15.32561071 12.74706141
  14.10680889 15.95879182 10.54542615
  16.05524097 13.50740428 15.46932774
  16.12378369 13.86719985 17.84881699
  10.65003333 16.83312109 15.57958151
  17.75542343 12.70720492 13.93845841
  11.65827089 14.77483714 11.08848310
  12.47679997 16.31435508 17.40412454
  12.97551123 16.58630397 14.93172071
  14.81136816 15.90857746 18.52319897
  14.19295679 14.86042044 16.53772182
  15.15207135 15.75828794 14.45700178
  11.41197389  9.92392273 14.93449566
  15.05599648  9.98047700 12.00358261
  10.88519874 10.21679841 12.46995429
  12.81487461  9.76679692 10.96013164
  13.75759439 10.38090801 15.53396491
  10.35040727 10.74110218 10.15911023
  15.40789533  9.15027079 14.31024131
  10.21087560 11.91770707 14.17630016
  12.02348958 12.17464673 15.90305600
  12.71253965 11.42997215 13.52569009
  16.28055676 11.01874324 15.83730620
  13.12877597  9.06330167 13.34273615
  14.51114848 11.56053452 10.20025807
   9.90345889 12.65906805 11.81765677
  16.52241841 11.99567070 11.66737470
  12.09917270 12.02478452 11.02974140
  13.31921229 13.71128059  9.69126378
  15.22634020 11.65727758 13.83644608
  14.34063737 12.36815798 16.81587030
   9.65903912 14.30876240 14.40671118
  17.23936829 10.37081448 13.38347959
  10.76210411 13.15051100  9.46828266
  11.70731129 14.60408157 15.68053092
  11.66131847 13.61227028 13.25057180
  12.55150609 13.75573843 17.85113313
  13.76488396 13.56515931 14.51030793
  13.95509930 12.97762767 12.05735806
 


--------------------------------------------------------------------------------------------------------


 use parallel FFT for orbitals z direction half grid
 k-point  1 :   0.0000 0.0000 0.0000  plane waves:  121565

 maximum and minimum number of plane-waves per node :     11062    11040

 maximum number of plane-waves:    121565
 maximum index in each direction: 
   IXMAX=   38   IYMAX=   38   IZMAX=   38
   IXMIN=  -38   IYMIN=  -38   IZMIN=    0


 parallel 3D FFT for wavefunctions:
    minimum data exchange during FFTs selected (reduces bandwidth)
 parallel 3D FFT for charge:
    minimum data exchange during FFTs selected (reduces bandwidth)


 total amount of memory used by VASP MPI-rank0   132918. kBytes
=======================================================================

   base      :      30000. kBytes
   nonl-proj :      11152. kBytes
   fftplans  :      14824. kBytes
   grid      :      37758. kBytes
   one-center:         77. kBytes
   wavefun   :      39107. kBytes
 
     INWAV:  cpu time    0.0000: real time    0.0004
 Broyden mixing: mesh for mixing (old mesh)
   NGX = 77   NGY = 77   NGZ = 77
  (NGX  =240   NGY  =240   NGZ  =240)
  gives a total of 456533 points

 initial charge density was supplied:
 charge density of overlapping atoms calculated
 number of electron     594.0000000 magnetization     162.0000000
 keeping initial charge density in first step


--------------------------------------------------------------------------------------------------------


 Maximum index for augmentation-charges          210 (set IRDMAX)


--------------------------------------------------------------------------------------------------------


 First call to EWALD:  gamma=   0.064
 Maximum number of real-space cells 3x 3x 3
 Maximum number of reciprocal cells 3x 3x 3

    FEWALD:  cpu time    0.0000: real time    0.0022


--------------------------------------- Iteration      1(   1)  ---------------------------------------


    POTLOK:  cpu time    0.7840: real time    0.7895
    SETDIJ:  cpu time    0.0160: real time    0.0170
     EDDAV:  cpu time   30.6920: real time   30.6993
       DOS:  cpu time    0.0040: real time    0.0006
    --------------------------------------------
      LOOP:  cpu time   31.4960: real time   31.5065

 eigenvalue-minimisations  :  1808
 total energy-change (2. order) : 0.3890024E+04  (-0.1261985E+05)
 number of electron     594.0000000 magnetization     162.0000000
 augmentation part      594.0000000 magnetization     162.0000000

 Free energy of the ion-electron system (eV)
  ---------------------------------------------------
  alpha Z        PSCENC =       101.18392075
  Ewald energy   TEWEN  =    272340.25418234
  -Hartree energ DENC   =   -340759.45051876
  -exchange      EXHF   =         0.00000000
  -V(xc)+E(xc)   XCENC  =      2496.55748494
  PAW double counting   =     66269.72770935   -71976.37735026
  entropy T*S    EENTRO =        -0.00000000
  eigenvalues    EBANDS =       307.60699825
  atomic energy  EATOM  =     75110.52157152
  Solvation  Ediel_sol  =         0.00000000
  ---------------------------------------------------
  free energy    TOTEN  =      3890.02399813 eV

  energy without entropy =     3890.02399813  energy(sigma->0) =     3890.02399813


--------------------------------------------------------------------------------------------------------




--------------------------------------- Iteration      1(   2)  ---------------------------------------


     EDDAV:  cpu time   31.4240: real time   31.4328
       DOS:  cpu time    0.0000: real time    0.0004
    --------------------------------------------
      LOOP:  cpu time   31.4240: real time   31.4332

 eigenvalue-minimisations  :  1856
 total energy-change (2. order) :-0.3678827E+04  (-0.3297127E+04)
 number of electron     594.0000000 magnetization     162.0000000
 augmentation part      594.0000000 magnetization     162.0000000

 Free energy of the ion-electron system (eV)
  ---------------------------------------------------
  alpha Z        PSCENC =       101.18392075
  Ewald energy   TEWEN  =    272340.25418234
  -Hartree energ DENC   =   -340759.45051876
  -exchange      EXHF   =         0.00000000
  -V(xc)+E(xc)   XCENC  =      2496.55748494
  PAW double counting   =     66269.72770935   -71976.37735026
  entropy T*S    EENTRO =         0.00000000
  eigenvalues    EBANDS =     -3371.21981584
  atomic energy  EATOM  =     75110.52157152
  Solvation  Ediel_sol  =         0.00000000
  ---------------------------------------------------
  free energy    TOTEN  =       211.19718404 eV

  energy without entropy =      211.19718404  energy(sigma->0) =      211.19718404


--------------------------------------------------------------------------------------------------------




--------------------------------------- Iteration      1(   3)  ---------------------------------------


     EDDAV:  cpu time   34.9400: real time   34.9461
       DOS:  cpu time    0.0040: real time    0.0004
    --------------------------------------------
      LOOP:  cpu time   34.9440: real time   34.9465

 eigenvalue-minimisations  :  2120
 total energy-change (2. order) :-0.3114928E+03  (-0.2945770E+03)
 number of electron     594.0000000 magnetization     162.0000000
 augmentation part      594.0000000 magnetization     162.0000000

 Free energy of the ion-electron system (eV)
  ---------------------------------------------------
  alpha Z        PSCENC =       101.18392075
  Ewald energy   TEWEN  =    272340.25418234
  -Hartree energ DENC   =   -340759.45051876
  -exchange      EXHF   =         0.00000000
  -V(xc)+E(xc)   XCENC  =      2496.55748494
  PAW double counting   =     66269.72770935   -71976.37735026
  entropy T*S    EENTRO =        -0.00000000
  eigenvalues    EBANDS =     -3682.71262232
  atomic energy  EATOM  =     75110.52157152
  Solvation  Ediel_sol  =         0.00000000
  ---------------------------------------------------
  free energy    TOTEN  =      -100.29562244 eV

  energy without entropy =     -100.29562244  energy(sigma->0) =     -100.29562244


--------------------------------------------------------------------------------------------------------




--------------------------------------- Iteration      1(   4)  ---------------------------------------


     EDDAV:  cpu time   36.0840: real time   36.0910
       DOS:  cpu time    0.0000: real time    0.0004
    --------------------------------------------
      LOOP:  cpu time   36.0840: real time   36.0913

 eigenvalue-minimisations  :  2208
 total energy-change (2. order) :-0.1893437E+02  (-0.1803466E+02)
 number of electron     594.0000000 magnetization     162.0000000
 augmentation part      594.0000000 magnetization     162.0000000

 Free energy of the ion-electron system (eV)
  ---------------------------------------------------
  alpha Z        PSCENC =       101.18392075
  Ewald energy   TEWEN  =    272340.25418234
  -Hartree energ DENC   =   -340759.45051876
  -exchange      EXHF   =         0.00000000
  -V(xc)+E(xc)   XCENC  =      2496.55748494
  PAW double counting   =     66269.72770935   -71976.37735026
  entropy T*S    EENTRO =        -0.00000000
  eigenvalues    EBANDS =     -3701.64699426
  atomic energy  EATOM  =     75110.52157152
  Solvation  Ediel_sol  =         0.00000000
  ---------------------------------------------------
  free energy    TOTEN  =      -119.22999438 eV

  energy without entropy =     -119.22999438  energy(sigma->0) =     -119.22999438


--------------------------------------------------------------------------------------------------------




--------------------------------------- Iteration      1(   5)  ---------------------------------------


     EDDAV:  cpu time   37.3400: real time   37.3408
       DOS:  cpu time    0.0000: real time    0.0007
    CHARGE:  cpu time    0.9760: real time    0.9737
    MIXING:  cpu time    0.0160: real time    0.0171
    --------------------------------------------
      LOOP:  cpu time   38.3320: real time   38.3323

 eigenvalue-minimisations  :  2304
 total energy-change (2. order) :-0.6750959E+00  (-0.6721878E+00)
 number of electron     593.9998533 magnetization     151.7673326
 augmentation part      349.8543690 magnetization     146.1676086

 Broyden mixing:
  rms(total) = 0.13180E+02    rms(broyden)= 0.13178E+02
  rms(prec ) = 0.13278E+02
  weight for this iteration     100.00

 Free energy of the ion-electron system (eV)
  ---------------------------------------------------
  alpha Z        PSCENC =       101.18392075
  Ewald energy   TEWEN  =    272340.25418234
  -Hartree energ DENC   =   -340759.45051876
  -exchange      EXHF   =         0.00000000
  -V(xc)+E(xc)   XCENC  =      2496.55748494
  PAW double counting   =     66269.72770935   -71976.37735026
  entropy T*S    EENTRO =         0.00000000
  eigenvalues    EBANDS =     -3702.32209017
  atomic energy  EATOM  =     75110.52157152
  Solvation  Ediel_sol  =         0.00000000
  ---------------------------------------------------
  free energy    TOTEN  =      -119.90509029 eV

  energy without entropy =     -119.90509029  energy(sigma->0) =     -119.90509029


--------------------------------------------------------------------------------------------------------




--------------------------------------- Iteration      1(   6)  ---------------------------------------


    POTLOK:  cpu time    0.7600: real time    0.7627
    SETDIJ:  cpu time    0.0160: real time    0.0173
     EDDAV:  cpu time   31.8120: real time   31.8121
       DOS:  cpu time    0.0000: real time    0.0007
    CHARGE:  cpu time    0.9720: real time    0.9726
    MIXING:  cpu time    0.0200: real time    0.0182
    --------------------------------------------
      LOOP:  cpu time   33.5800: real time   33.5837

 eigenvalue-minimisations  :  1880
 total energy-change (2. order) : 0.3397886E+03  (-0.2091783E+03)
 number of electron     593.9998236 magnetization     144.2008496
 augmentation part      409.2659081 magnetization      98.8720235

 Broyden mixing:
  rms(total) = 0.64597E+01    rms(broyden)= 0.64566E+01
  rms(prec ) = 0.66131E+01
  weight for this iteration     100.00

 eigenvalues of (default mixing * dielectric matrix)
  average eigenvalue GAMMA=   0.9407
  0.9407

 Free energy of the ion-electron system (eV)
  ---------------------------------------------------
  alpha Z        PSCENC =       101.18392075
  Ewald energy   TEWEN  =    272340.25418234
  -Hartree energ DENC   =   -339198.42808032
  -exchange      EXHF   =         0.00000000
  -V(xc)+E(xc)   XCENC  =      2661.62891333
  PAW double counting   =     66553.37498089   -71968.07193823
  entropy T*S    EENTRO =         0.00000000
  eigenvalues    EBANDS =     -5380.58003157
  atomic energy  EATOM  =     75110.52157152
  Solvation  Ediel_sol  =         0.00000000
  ---------------------------------------------------
  free energy    TOTEN  =       219.88351872 eV

  energy without entropy =      219.88351872  energy(sigma->0) =      219.88351872


--------------------------------------------------------------------------------------------------------




--------------------------------------- Iteration      1(   7)  ---------------------------------------


    POTLOK:  cpu time    0.7600: real time    0.7663
    SETDIJ:  cpu time    0.0160: real time    0.0168
     EDDAV:  cpu time   33.9080: real time   33.9092
       DOS:  cpu time    0.0000: real time    0.0009
    CHARGE:  cpu time    0.9720: real time    0.9739
    MIXING:  cpu time    0.0200: real time    0.0187
    --------------------------------------------
      LOOP:  cpu time   35.6760: real time   35.6856

 eigenvalue-minimisations  :  2040
 total energy-change (2. order) : 0.1287642E+02  (-0.7908366E+02)
 number of electron     593.9998342 magnetization     135.2215242
 augmentation part      383.4731185 magnetization      86.9905091

 Broyden mixing:
  rms(total) = 0.35255E+01    rms(broyden)= 0.35242E+01
  rms(prec ) = 0.35574E+01
  weight for this iteration     100.00

 eigenvalues of (default mixing * dielectric matrix)
  average eigenvalue GAMMA=   0.8717
  1.0490  0.6944

 Free energy of the ion-electron system (eV)
  ---------------------------------------------------
  alpha Z        PSCENC =       101.18392075
  Ewald energy   TEWEN  =    272340.25418234
  -Hartree energ DENC   =   -340520.43516429
  -exchange      EXHF   =         0.00000000
  -V(xc)+E(xc)   XCENC  =      2699.04164896
  PAW double counting   =     68621.71518590   -74503.61897478
  entropy T*S    EENTRO =         0.00000000
  eigenvalues    EBANDS =     -3615.90243464
  atomic energy  EATOM  =     75110.52157152
  Solvation  Ediel_sol  =         0.00000000
  ---------------------------------------------------
  free energy    TOTEN  =       232.75993575 eV

  energy without entropy =      232.75993575  energy(sigma->0) =      232.75993575


--------------------------------------------------------------------------------------------------------




--------------------------------------- Iteration      1(   8)  ---------------------------------------


    POTLOK:  cpu time    0.7600: real time    0.7630
    SETDIJ:  cpu time    0.0160: real time    0.0169
     EDDAV:  cpu time   37.7640: real time   37.7630
       DOS:  cpu time    0.0000: real time    0.0008
    CHARGE:  cpu time    0.9720: real time    0.9728
    MIXING:  cpu time    0.0200: real time    0.0196
    --------------------------------------------
      LOOP:  cpu time   39.5320: real time   39.5362

 eigenvalue-minimisations  :  2336
 total energy-change (2. order) : 0.1425510E+02  (-0.1396985E+02)
 number of electron     593.9998366 magnetization     130.1775929
 augmentation part      378.6342659 magnetization      80.2361113

 Broyden mixing:
  rms(total) = 0.34914E+01    rms(broyden)= 0.34908E+01
  rms(prec ) = 0.35839E+01
  weight for this iteration     100.00

 eigenvalues of (default mixing * dielectric matrix)
  average eigenvalue GAMMA=   0.7558
  1.0816  0.7192  0.4666

 Free energy of the ion-electron system (eV)
  ---------------------------------------------------
  alpha Z        PSCENC =       101.18392075
  Ewald energy   TEWEN  =    272340.25418234
  -Hartree energ DENC   =   -340751.00487503
  -exchange      EXHF   =         0.00000000
  -V(xc)+E(xc)   XCENC  =      2714.62149089
  PAW double counting   =     69752.50729083   -75662.68130806
  entropy T*S    EENTRO =         0.00000000
  eigenvalues    EBANDS =     -3358.38723714
  atomic energy  EATOM  =     75110.52157152
  Solvation  Ediel_sol  =         0.00000000
  ---------------------------------------------------
  free energy    TOTEN  =       247.01503610 eV

  energy without entropy =      247.01503610  energy(sigma->0) =      247.01503610


--------------------------------------------------------------------------------------------------------




--------------------------------------- Iteration      1(   9)  ---------------------------------------


    POTLOK:  cpu time    0.7600: real time    0.7660
    SETDIJ:  cpu time    0.0200: real time    0.0171
     EDDAV:  cpu time   38.7000: real time   38.7019
       DOS:  cpu time    0.0000: real time    0.0007
    CHARGE:  cpu time    0.9720: real time    0.9735
    MIXING:  cpu time    0.0240: real time    0.0206
    --------------------------------------------
      LOOP:  cpu time   40.4760: real time   40.4798

 eigenvalue-minimisations  :  2408
 total energy-change (2. order) :-0.1633148E+02  (-0.4074677E+01)
 number of electron     593.9998364 magnetization     114.5184179
 augmentation part      380.7949154 magnetization      68.3138102

 Broyden mixing:
  rms(total) = 0.25518E+01    rms(broyden)= 0.25513E+01
  rms(prec ) = 0.25794E+01
  weight for this iteration     100.00

 eigenvalues of (default mixing * dielectric matrix)
  average eigenvalue GAMMA=   0.9127
  1.5182  0.9585  0.7925  0.3816

 Free energy of the ion-electron system (eV)
  ---------------------------------------------------
  alpha Z        PSCENC =       101.18392075
  Ewald energy   TEWEN  =    272340.25418234
  -Hartree energ DENC   =   -340635.80868053
  -exchange      EXHF   =         0.00000000
  -V(xc)+E(xc)   XCENC  =      2697.33750440
  PAW double counting   =     70017.97254401   -75904.37285742
  entropy T*S    EENTRO =         0.00000000
  eigenvalues    EBANDS =     -3496.40462592
  atomic energy  EATOM  =     75110.52157152
  Solvation  Ediel_sol  =         0.00000000
  ---------------------------------------------------
  free energy    TOTEN  =       230.68355915 eV

  energy without entropy =      230.68355915  energy(sigma->0) =      230.68355915


--------------------------------------------------------------------------------------------------------




--------------------------------------- Iteration      1(  10)  ---------------------------------------


    POTLOK:  cpu time    0.7560: real time    0.7623
    SETDIJ:  cpu time    0.0200: real time    0.0166
     EDDAV:  cpu time   45.5800: real time   45.5815
       DOS:  cpu time    0.0000: real time    0.0007
    CHARGE:  cpu time    0.9720: real time    0.9738
    MIXING:  cpu time    0.0240: real time    0.0218
    --------------------------------------------
      LOOP:  cpu time   47.3520: real time   47.3567

 eigenvalue-minimisations  :  2936
 total energy-change (2. order) :-0.8253986E+02  (-0.4325721E+01)
 number of electron     593.9998337 magnetization      97.4354343
 augmentation part      382.4603749 magnetization      56.1242197

 Broyden mixing:
  rms(total) = 0.21373E+01    rms(broyden)= 0.21367E+01
  rms(prec ) = 0.21759E+01
  weight for this iteration     100.00

 eigenvalues of (default mixing * dielectric matrix)
  average eigenvalue GAMMA=   1.0836
  2.7158  1.0746  0.7261  0.5191  0.3822

 Free energy of the ion-electron system (eV)
  ---------------------------------------------------
  alpha Z        PSCENC =       101.18392075
  Ewald energy   TEWEN  =    272340.25418234
  -Hartree energ DENC   =   -340704.19815610
  -exchange      EXHF   =         0.00000000
  -V(xc)+E(xc)   XCENC  =      2629.15920496
  PAW double counting   =     70677.17965660   -76517.10805547
  entropy T*S    EENTRO =         0.00000000
  eigenvalues    EBANDS =     -3488.84862231
  atomic energy  EATOM  =     75110.52157152
  Solvation  Ediel_sol  =         0.00000000
  ---------------------------------------------------
  free energy    TOTEN  =       148.14370230 eV

  energy without entropy =      148.14370230  energy(sigma->0) =      148.14370230


--------------------------------------------------------------------------------------------------------




--------------------------------------- Iteration      1(  11)  ---------------------------------------


    POTLOK:  cpu time    0.7560: real time    0.7728
    SETDIJ:  cpu time    0.0160: real time    0.0171
     EDDAV:  cpu time   37.8280: real time   37.8299
       DOS:  cpu time    0.0000: real time    0.0007
    CHARGE:  cpu time    0.9880: real time    0.9882
    MIXING:  cpu time    0.0240: real time    0.0226
    --------------------------------------------
      LOOP:  cpu time   39.6120: real time   39.6313

 eigenvalue-minimisations  :  2344
 total energy-change (2. order) :-0.4757897E+02  (-0.4569279E+01)
 number of electron     593.9998340 magnetization      89.4718657
 augmentation part      384.3709493 magnetization      52.8157594

 Broyden mixing:
  rms(total) = 0.16078E+01    rms(broyden)= 0.16074E+01
  rms(prec ) = 0.16328E+01
  weight for this iteration     100.00

 eigenvalues of (default mixing * dielectric matrix)
  average eigenvalue GAMMA=   1.0978
  3.2298  1.1877  0.6615  0.6615  0.4769  0.3691

 Free energy of the ion-electron system (eV)
  ---------------------------------------------------
  alpha Z        PSCENC =       101.18392075
  Ewald energy   TEWEN  =    272340.25418234
  -Hartree energ DENC   =   -340737.44527006
  -exchange      EXHF   =         0.00000000
  -V(xc)+E(xc)   XCENC  =      2592.56189470
  PAW double counting   =     71120.99315052   -76927.86027974
  entropy T*S    EENTRO =         0.00000000
  eigenvalues    EBANDS =     -3499.64443632
  atomic energy  EATOM  =     75110.52157152
  Solvation  Ediel_sol  =         0.00000000
  ---------------------------------------------------
  free energy    TOTEN  =       100.56473372 eV

  energy without entropy =      100.56473372  energy(sigma->0) =      100.56473372


--------------------------------------------------------------------------------------------------------




--------------------------------------- Iteration      1(  12)  ---------------------------------------


    POTLOK:  cpu time    0.7600: real time    0.7646
    SETDIJ:  cpu time    0.0160: real time    0.0168
     EDDAV:  cpu time   33.9800: real time   33.9781
       DOS:  cpu time    0.0000: real time    0.0008
    CHARGE:  cpu time    0.9880: real time    0.9886
    MIXING:  cpu time    0.0240: real time    0.0239
    --------------------------------------------
      LOOP:  cpu time   35.7680: real time   35.7727

 eigenvalue-minimisations  :  2048
 total energy-change (2. order) :-0.2581154E+02  (-0.2392564E+01)
 number of electron     593.9998341 magnetization      77.8819438
 augmentation part      383.5934638 magnetization      45.1681099

 Broyden mixing:
  rms(total) = 0.13062E+01    rms(broyden)= 0.13060E+01
  rms(prec ) = 0.13235E+01
  weight for this iteration     100.00

 eigenvalues of (default mixing * dielectric matrix)
  average eigenvalue GAMMA=   1.2071
  3.9741  1.4074  0.8271  0.8271  0.6127  0.4008  0.4008

 Free energy of the ion-electron system (eV)
  ---------------------------------------------------
  alpha Z        PSCENC =       101.18392075
  Ewald energy   TEWEN  =    272340.25418234
  -Hartree energ DENC   =   -340762.13554278
  -exchange      EXHF   =         0.00000000
  -V(xc)+E(xc)   XCENC  =      2576.11859148
  PAW double counting   =     71016.30016021   -76829.03142558
  entropy T*S    EENTRO =        -0.00000000
  eigenvalues    EBANDS =     -3478.45826818
  atomic energy  EATOM  =     75110.52157152
  Solvation  Ediel_sol  =         0.00000000
  ---------------------------------------------------
  free energy    TOTEN  =        74.75318976 eV

  energy without entropy =       74.75318976  energy(sigma->0) =       74.75318976


--------------------------------------------------------------------------------------------------------




--------------------------------------- Iteration      1(  13)  ---------------------------------------


    POTLOK:  cpu time    0.7600: real time    0.7655
    SETDIJ:  cpu time    0.0200: real time    0.0168
     EDDAV:  cpu time   34.1760: real time   34.1788
       DOS:  cpu time    0.0000: real time    0.0007
    CHARGE:  cpu time    0.9920: real time    0.9891
    MIXING:  cpu time    0.0240: real time    0.0250
    --------------------------------------------
      LOOP:  cpu time   35.9720: real time   35.9760

 eigenvalue-minimisations  :  2064
 total energy-change (2. order) :-0.4916900E+02  (-0.3432397E+01)
 number of electron     593.9998350 magnetization      61.4766989
 augmentation part      381.1020542 magnetization      34.3851413

 Broyden mixing:
  rms(total) = 0.10711E+01    rms(broyden)= 0.10706E+01
  rms(prec ) = 0.10905E+01
  weight for this iteration     100.00

 eigenvalues of (default mixing * dielectric matrix)
  average eigenvalue GAMMA=   1.3005
  5.0292  1.6890  0.9960  0.7168  0.7168  0.3752  0.4406  0.4406

 Free energy of the ion-electron system (eV)
  ---------------------------------------------------
  alpha Z        PSCENC =       101.18392075
  Ewald energy   TEWEN  =    272340.25418234
  -Hartree energ DENC   =   -340800.39974349
  -exchange      EXHF   =         0.00000000
  -V(xc)+E(xc)   XCENC  =      2544.00269592
  PAW double counting   =     70789.76594893   -76617.75123947
  entropy T*S    EENTRO =        -0.00000000
  eigenvalues    EBANDS =     -3441.99314306
  atomic energy  EATOM  =     75110.52157152
  Solvation  Ediel_sol  =         0.00000000
  ---------------------------------------------------
  free energy    TOTEN  =        25.58419344 eV

  energy without entropy =       25.58419344  energy(sigma->0) =       25.58419344


--------------------------------------------------------------------------------------------------------




--------------------------------------- Iteration      1(  14)  ---------------------------------------


    POTLOK:  cpu time    0.7600: real time    0.7643
    SETDIJ:  cpu time    0.0160: real time    0.0167
     EDDAV:  cpu time   37.7280: real time   37.7290
       DOS:  cpu time    0.0040: real time    0.0009
    CHARGE:  cpu time    0.9880: real time    0.9888
    MIXING:  cpu time    0.0240: real time    0.0264
    --------------------------------------------
      LOOP:  cpu time   39.5200: real time   39.5261

 eigenvalue-minimisations  :  2336
 total energy-change (2. order) :-0.6048139E+02  (-0.5615702E+01)
 number of electron     593.9998361 magnetization      51.0954666
 augmentation part      378.5414608 magnetization      30.4445383

 Broyden mixing:
  rms(total) = 0.89042E+00    rms(broyden)= 0.88967E+00
  rms(prec ) = 0.91095E+00
  weight for this iteration     100.00

 eigenvalues of (default mixing * dielectric matrix)
  average eigenvalue GAMMA=   1.3728
  5.9140  2.1116  1.0692  0.7326  0.7326  0.5995  0.4140  0.4140  0.3679

 Free energy of the ion-electron system (eV)
  ---------------------------------------------------
  alpha Z        PSCENC =       101.18392075
  Ewald energy   TEWEN  =    272340.25418234
  -Hartree energ DENC   =   -340848.62103043
  -exchange      EXHF   =         0.00000000
  -V(xc)+E(xc)   XCENC  =      2502.94970460
  PAW double counting   =     70567.74420528   -76403.49720946
  entropy T*S    EENTRO =         0.00000000
  eigenvalues    EBANDS =     -3405.43253739
  atomic energy  EATOM  =     75110.52157152
  Solvation  Ediel_sol  =         0.00000000
  ---------------------------------------------------
  free energy    TOTEN  =       -34.89719280 eV

  energy without entropy =      -34.89719280  energy(sigma->0) =      -34.89719280


--------------------------------------------------------------------------------------------------------




--------------------------------------- Iteration      1(  15)  ---------------------------------------


    POTLOK:  cpu time    0.7640: real time    0.7682
    SETDIJ:  cpu time    0.0160: real time    0.0167
     EDDAV:  cpu time   37.3240: real time   37.3253
       DOS:  cpu time    0.0040: real time    0.0007
    CHARGE:  cpu time    0.9840: real time    0.9871
    MIXING:  cpu time    0.0280: real time    0.0282
    --------------------------------------------
      LOOP:  cpu time   39.1200: real time   39.1262

 eigenvalue-minimisations  :  2304
 total energy-change (2. order) :-0.3699819E+02  (-0.3965067E+01)
 number of electron     593.9998359 magnetization      43.1697109
 augmentation part      378.4331707 magnetization      29.7212752

 Broyden mixing:
  rms(total) = 0.80204E+00    rms(broyden)= 0.80116E+00
  rms(prec ) = 0.82221E+00
  weight for this iteration     100.00

 eigenvalues of (default mixing * dielectric matrix)
  average eigenvalue GAMMA=   1.3959
  6.7057  2.3895  1.0742  0.7675  0.7675  0.5457  0.5457  0.4294  0.3671  0.3671

 Free energy of the ion-electron system (eV)
  ---------------------------------------------------
  alpha Z        PSCENC =       101.18392075
  Ewald energy   TEWEN  =    272340.25418234
  -Hartree energ DENC   =   -340821.44950618
  -exchange      EXHF   =         0.00000000
  -V(xc)+E(xc)   XCENC  =      2475.74682639
  PAW double counting   =     70362.24386676   -76183.19028032
  entropy T*S    EENTRO =         0.00000000
  eigenvalues    EBANDS =     -3457.20595989
  atomic energy  EATOM  =     75110.52157152
  Solvation  Ediel_sol  =         0.00000000
  ---------------------------------------------------
  free energy    TOTEN  =       -71.89537864 eV

  energy without entropy =      -71.89537864  energy(sigma->0) =      -71.89537864


--------------------------------------------------------------------------------------------------------




--------------------------------------- Iteration      1(  16)  ---------------------------------------


    POTLOK:  cpu time    0.7640: real time    0.7661
    SETDIJ:  cpu time    0.0160: real time    0.0172
     EDDAV:  cpu time   37.9560: real time   37.9562
       DOS:  cpu time    0.0000: real time    0.0007
    CHARGE:  cpu time    0.9840: real time    0.9828
    MIXING:  cpu time    0.0280: real time    0.0301
    --------------------------------------------
      LOOP:  cpu time   39.7480: real time   39.7532

 eigenvalue-minimisations  :  2352
 total energy-change (2. order) :-0.1975263E+02  (-0.2239517E+01)
 number of electron     593.9998361 magnetization      35.8257878
 augmentation part      378.9507564 magnetization      26.1265726

 Broyden mixing:
  rms(total) = 0.60763E+00    rms(broyden)= 0.60717E+00
  rms(prec ) = 0.61940E+00
  weight for this iteration     100.00

 eigenvalues of (default mixing * dielectric matrix)
  average eigenvalue GAMMA=   1.4282
  7.3946  2.6919  0.9874  0.8538  0.8538  0.6725  0.6725  0.4275  0.4275  0.3934
  0.3353

 Free energy of the ion-electron system (eV)
  ---------------------------------------------------
  alpha Z        PSCENC =       101.18392075
  Ewald energy   TEWEN  =    272340.25418234
  -Hartree energ DENC   =   -340798.66583925
  -exchange      EXHF   =         0.00000000
  -V(xc)+E(xc)   XCENC  =      2460.72332691
  PAW double counting   =     70251.32782349   -76057.74035992
  entropy T*S    EENTRO =         0.00000000
  eigenvalues    EBANDS =     -3499.25262963
  atomic energy  EATOM  =     75110.52157152
  Solvation  Ediel_sol  =         0.00000000
  ---------------------------------------------------
  free energy    TOTEN  =       -91.64800378 eV

  energy without entropy =      -91.64800378  energy(sigma->0) =      -91.64800378


--------------------------------------------------------------------------------------------------------




--------------------------------------- Iteration      1(  17)  ---------------------------------------


    POTLOK:  cpu time    0.7600: real time    0.7664
    SETDIJ:  cpu time    0.0160: real time    0.0169
     EDDAV:  cpu time   37.9480: real time   37.9463
       DOS:  cpu time    0.0000: real time    0.0007
    CHARGE:  cpu time    0.9800: real time    0.9821
    MIXING:  cpu time    0.0320: real time    0.0326
    --------------------------------------------
      LOOP:  cpu time   39.7360: real time   39.7450

 eigenvalue-minimisations  :  2352
 total energy-change (2. order) :-0.1988483E+02  (-0.1635986E+01)
 number of electron     593.9998354 magnetization      28.5460476
 augmentation part      379.9186170 magnetization      24.0135467

 Broyden mixing:
  rms(total) = 0.46025E+00    rms(broyden)= 0.45947E+00
  rms(prec ) = 0.46861E+00
  weight for this iteration     100.00

 eigenvalues of (default mixing * dielectric matrix)
  average eigenvalue GAMMA=   1.4819
  8.3813  2.8890  0.9979  0.9979  1.0054  0.7033  0.7033  0.5440  0.4714  0.3812
  0.3812  0.3267

 Free energy of the ion-electron system (eV)
  ---------------------------------------------------
  alpha Z        PSCENC =       101.18392075
  Ewald energy   TEWEN  =    272340.25418234
  -Hartree energ DENC   =   -340757.33662902
  -exchange      EXHF   =         0.00000000
  -V(xc)+E(xc)   XCENC  =      2444.23531861
  PAW double counting   =     70137.55534810   -75929.96680104
  entropy T*S    EENTRO =         0.00000000
  eigenvalues    EBANDS =     -3557.97974388
  atomic energy  EATOM  =     75110.52157152
  Solvation  Ediel_sol  =         0.00000000
  ---------------------------------------------------
  free energy    TOTEN  =      -111.53283263 eV

  energy without entropy =     -111.53283263  energy(sigma->0) =     -111.53283263


--------------------------------------------------------------------------------------------------------




--------------------------------------- Iteration      1(  18)  ---------------------------------------


    POTLOK:  cpu time    0.7640: real time    0.7647
    SETDIJ:  cpu time    0.0160: real time    0.0167
     EDDAV:  cpu time   37.5280: real time   37.5305
       DOS:  cpu time    0.0000: real time    0.0008
    CHARGE:  cpu time    0.9800: real time    0.9804
    MIXING:  cpu time    0.0360: real time    0.0360
    --------------------------------------------
      LOOP:  cpu time   39.3240: real time   39.3291

 eigenvalue-minimisations  :  2320
 total energy-change (2. order) :-0.1349176E+02  (-0.7579371E+00)
 number of electron     593.9998360 magnetization      23.7758549
 augmentation part      380.2411957 magnetization      22.1938732

 Broyden mixing:
  rms(total) = 0.36807E+00    rms(broyden)= 0.36754E+00
  rms(prec ) = 0.37567E+00
  weight for this iteration     100.00

 eigenvalues of (default mixing * dielectric matrix)
  average eigenvalue GAMMA=   1.5247
  9.3859  3.0022  1.1105  1.1105  1.0782  0.7201  0.7201  0.6948  0.4579  0.4579
  0.3773  0.3773  0.3288

 Free energy of the ion-electron system (eV)
  ---------------------------------------------------
  alpha Z        PSCENC =       101.18392075
  Ewald energy   TEWEN  =    272340.25418234
  -Hartree energ DENC   =   -340739.75295125
  -exchange      EXHF   =         0.00000000
  -V(xc)+E(xc)   XCENC  =      2433.14966639
  PAW double counting   =     70106.43591802   -75896.22070933
  entropy T*S    EENTRO =         0.00000000
  eigenvalues    EBANDS =     -3580.59618791
  atomic energy  EATOM  =     75110.52157152
  Solvation  Ediel_sol  =         0.00000000
  ---------------------------------------------------
  free energy    TOTEN  =      -125.02458947 eV

  energy without entropy =     -125.02458947  energy(sigma->0) =     -125.02458947


--------------------------------------------------------------------------------------------------------




--------------------------------------- Iteration      1(  19)  ---------------------------------------


    POTLOK:  cpu time    0.7640: real time    0.7651
    SETDIJ:  cpu time    0.0160: real time    0.0172
     EDDAV:  cpu time   36.4880: real time   36.4898
       DOS:  cpu time    0.0000: real time    0.0007
    CHARGE:  cpu time    0.9840: real time    0.9810
    MIXING:  cpu time    0.0360: real time    0.0391
    --------------------------------------------
      LOOP:  cpu time   38.2880: real time   38.2928

 eigenvalue-minimisations  :  2240
 total energy-change (2. order) :-0.7991951E+01  (-0.2969056E+00)
 number of electron     593.9998357 magnetization      19.9753636
 augmentation part      380.1540941 magnetization      19.1101053

 Broyden mixing:
  rms(total) = 0.29514E+00    rms(broyden)= 0.29506E+00
  rms(prec ) = 0.30082E+00
  weight for this iteration     100.00

 eigenvalues of (default mixing * dielectric matrix)
  average eigenvalue GAMMA=   1.5494
 10.0223  3.2555  1.2770  1.2770  0.9149  0.9149  0.7442  0.7442  0.5483  0.4937
  0.4050  0.4050  0.3656  0.3245

 Free energy of the ion-electron system (eV)
  ---------------------------------------------------
  alpha Z        PSCENC =       101.18392075
  Ewald energy   TEWEN  =    272340.25418234
  -Hartree energ DENC   =   -340730.18626764
  -exchange      EXHF   =         0.00000000
  -V(xc)+E(xc)   XCENC  =      2426.60661790
  PAW double counting   =     70122.79454056   -75915.66525595
  entropy T*S    EENTRO =         0.00000000
  eigenvalues    EBANDS =     -3588.52585021
  atomic energy  EATOM  =     75110.52157152
  Solvation  Ediel_sol  =         0.00000000
  ---------------------------------------------------
  free energy    TOTEN  =      -133.01654073 eV

  energy without entropy =     -133.01654073  energy(sigma->0) =     -133.01654073


--------------------------------------------------------------------------------------------------------




--------------------------------------- Iteration      1(  20)  ---------------------------------------


    POTLOK:  cpu time    0.7640: real time    0.7646
    SETDIJ:  cpu time    0.0160: real time    0.0166
     EDDAV:  cpu time   35.8440: real time   35.8453
       DOS:  cpu time    0.0000: real time    0.0007
    CHARGE:  cpu time    0.9800: real time    0.9805
    MIXING:  cpu time    0.0440: real time    0.0434
    --------------------------------------------
      LOOP:  cpu time   37.6480: real time   37.6512

 eigenvalue-minimisations  :  2192
 total energy-change (2. order) :-0.8417640E+01  (-0.1934567E+00)
 number of electron     593.9998359 magnetization      16.0470954
 augmentation part      380.2474223 magnetization      15.6811523

 Broyden mixing:
  rms(total) = 0.24086E+00    rms(broyden)= 0.24083E+00
  rms(prec ) = 0.24611E+00
  weight for this iteration     100.00

 eigenvalues of (default mixing * dielectric matrix)
  average eigenvalue GAMMA=   1.5751
 10.4789  3.5702  1.4717  1.4717  1.0007  1.0007  0.7634  0.7634  0.5876  0.5876
  0.4264  0.4264  0.3765  0.3765  0.3240

 Free energy of the ion-electron system (eV)
  ---------------------------------------------------
  alpha Z        PSCENC =       101.18392075
  Ewald energy   TEWEN  =    272340.25418234
  -Hartree energ DENC   =   -340691.33171815
  -exchange      EXHF   =         0.00000000
  -V(xc)+E(xc)   XCENC  =      2418.76763206
  PAW double counting   =     70101.06846443   -75894.98003294
  entropy T*S    EENTRO =         0.00000000
  eigenvalues    EBANDS =     -3626.91820032
  atomic energy  EATOM  =     75110.52157152
  Solvation  Ediel_sol  =         0.00000000
  ---------------------------------------------------
  free energy    TOTEN  =      -141.43418031 eV

  energy without entropy =     -141.43418031  energy(sigma->0) =     -141.43418031


--------------------------------------------------------------------------------------------------------




--------------------------------------- Iteration      1(  21)  ---------------------------------------


    POTLOK:  cpu time    0.7640: real time    0.7676
    SETDIJ:  cpu time    0.0160: real time    0.0168
     EDDAV:  cpu time   36.1640: real time   36.1656
       DOS:  cpu time    0.0040: real time    0.0007
    CHARGE:  cpu time    0.9840: real time    0.9846
    MIXING:  cpu time    0.0480: real time    0.0475
    --------------------------------------------
      LOOP:  cpu time   37.9800: real time   37.9829

 eigenvalue-minimisations  :  2216
 total energy-change (2. order) :-0.7448428E+01  (-0.9955083E-01)
 number of electron     593.9998357 magnetization      12.3250636
 augmentation part      380.4416319 magnetization      12.2090059

 Broyden mixing:
  rms(total) = 0.18443E+00    rms(broyden)= 0.18440E+00
  rms(prec ) = 0.18872E+00
  weight for this iteration     100.00

 eigenvalues of (default mixing * dielectric matrix)
  average eigenvalue GAMMA=   1.6078
 10.9666  3.9050  2.0909  1.1687  1.1687  0.9113  0.9113  0.7651  0.7651  0.6594
  0.4697  0.4585  0.3977  0.3977  0.3654  0.3241

 Free energy of the ion-electron system (eV)
  ---------------------------------------------------
  alpha Z        PSCENC =       101.18392075
  Ewald energy   TEWEN  =    272340.25418234
  -Hartree energ DENC   =   -340643.64185841
  -exchange      EXHF   =         0.00000000
  -V(xc)+E(xc)   XCENC  =      2411.15213659
  PAW double counting   =     70091.79111594   -75885.87265983
  entropy T*S    EENTRO =         0.00000000
  eigenvalues    EBANDS =     -3674.27101688
  atomic energy  EATOM  =     75110.52157152
  Solvation  Ediel_sol  =         0.00000000
  ---------------------------------------------------
  free energy    TOTEN  =      -148.88260798 eV

  energy without entropy =     -148.88260798  energy(sigma->0) =     -148.88260798


--------------------------------------------------------------------------------------------------------




--------------------------------------- Iteration      1(  22)  ---------------------------------------


    POTLOK:  cpu time    0.7640: real time    0.7690
    SETDIJ:  cpu time    0.0160: real time    0.0168
     EDDAV:  cpu time   35.6280: real time   35.6310
       DOS:  cpu time    0.0000: real time    0.0008
    CHARGE:  cpu time    0.9880: real time    0.9856
    MIXING:  cpu time    0.0560: real time    0.0547
    --------------------------------------------
      LOOP:  cpu time   37.4520: real time   37.4579

 eigenvalue-minimisations  :  2176
 total energy-change (2. order) :-0.5362986E+01  (-0.4193143E-01)
 number of electron     593.9998358 magnetization       8.9308634
 augmentation part      380.4359472 magnetization       8.8430690

 Broyden mixing:
  rms(total) = 0.13850E+00    rms(broyden)= 0.13849E+00
  rms(prec ) = 0.14231E+00
  weight for this iteration     100.00

 eigenvalues of (default mixing * dielectric matrix)
  average eigenvalue GAMMA=   1.6547
 11.4540  4.4021  2.4780  1.3197  1.3197  0.9558  0.9558  0.7336  0.7336  0.7541
  0.6581  0.4462  0.4462  0.3911  0.3911  0.3675  0.3236

 Free energy of the ion-electron system (eV)
  ---------------------------------------------------
  alpha Z        PSCENC =       101.18392075
  Ewald energy   TEWEN  =    272340.25418234
  -Hartree energ DENC   =   -340615.90672457
  -exchange      EXHF   =         0.00000000
  -V(xc)+E(xc)   XCENC  =      2405.80300191
  PAW double counting   =     70122.44687878   -75919.57964138
  entropy T*S    EENTRO =         0.00000000
  eigenvalues    EBANDS =     -3698.96878290
  atomic energy  EATOM  =     75110.52157152
  Solvation  Ediel_sol  =         0.00000000
  ---------------------------------------------------
  free energy    TOTEN  =      -154.24559355 eV

  energy without entropy =     -154.24559355  energy(sigma->0) =     -154.24559355


--------------------------------------------------------------------------------------------------------




--------------------------------------- Iteration      1(  23)  ---------------------------------------


    POTLOK:  cpu time    0.7600: real time    0.7651
    SETDIJ:  cpu time    0.0160: real time    0.0168
     EDDAV:  cpu time   35.0200: real time   35.0216
       DOS:  cpu time    0.0040: real time    0.0008
    CHARGE:  cpu time    0.9840: real time    0.9859
    MIXING:  cpu time    0.0640: real time    0.0634
    --------------------------------------------
      LOOP:  cpu time   36.8480: real time   36.8535

 eigenvalue-minimisations  :  2128
 total energy-change (2. order) :-0.4314028E+01  (-0.2415320E-01)
 number of electron     593.9998357 magnetization       6.5294436
 augmentation part      380.3151314 magnetization       6.4620079

 Broyden mixing:
  rms(total) = 0.10003E+00    rms(broyden)= 0.10001E+00
  rms(prec ) = 0.10288E+00
  weight for this iteration     100.00

 eigenvalues of (default mixing * dielectric matrix)
  average eigenvalue GAMMA=   1.6922
 11.8910  5.0514  2.7494  1.3379  1.1330  1.1330  1.0415  1.0415  0.7428  0.7428
  0.6180  0.6180  0.4396  0.4396  0.3931  0.3931  0.3694  0.3236

 Free energy of the ion-electron system (eV)
  ---------------------------------------------------
  alpha Z        PSCENC =       101.18392075
  Ewald energy   TEWEN  =    272340.25418234
  -Hartree energ DENC   =   -340586.15975119
  -exchange      EXHF   =         0.00000000
  -V(xc)+E(xc)   XCENC  =      2401.63627001
  PAW double counting   =     70130.26085570   -75930.70950992
  entropy T*S    EENTRO =         0.00000000
  eigenvalues    EBANDS =     -3725.54716124
  atomic energy  EATOM  =     75110.52157152
  Solvation  Ediel_sol  =         0.00000000
  ---------------------------------------------------
  free energy    TOTEN  =      -158.55962203 eV

  energy without entropy =     -158.55962203  energy(sigma->0) =     -158.55962203


--------------------------------------------------------------------------------------------------------




--------------------------------------- Iteration      1(  24)  ---------------------------------------


    POTLOK:  cpu time    0.7640: real time    0.7658
    SETDIJ:  cpu time    0.0160: real time    0.0167
     EDDAV:  cpu time   33.5560: real time   33.5567
       DOS:  cpu time    0.0000: real time    0.0007
    CHARGE:  cpu time    0.9840: real time    0.9857
    MIXING:  cpu time    0.0760: real time    0.0739
    --------------------------------------------
      LOOP:  cpu time   35.3960: real time   35.3995

 eigenvalue-minimisations  :  2016
 total energy-change (2. order) :-0.2370184E+01  (-0.1243497E-01)
 number of electron     593.9998360 magnetization       4.5724110
 augmentation part      380.2059031 magnetization       4.5363023

 Broyden mixing:
  rms(total) = 0.69843E-01    rms(broyden)= 0.69829E-01
  rms(prec ) = 0.72114E-01
  weight for this iteration     100.00

 eigenvalues of (default mixing * dielectric matrix)
  average eigenvalue GAMMA=   1.7386
 12.3510  5.8311  3.0058  1.5562  1.3478  1.3478  0.9434  0.9434  0.7345  0.7345
  0.7094  0.7094  0.3236  0.3673  0.3928  0.3928  0.4505  0.4505  0.4423

 Free energy of the ion-electron system (eV)
  ---------------------------------------------------
  alpha Z        PSCENC =       101.18392075
  Ewald energy   TEWEN  =    272340.25418234
  -Hartree energ DENC   =   -340558.49012446
  -exchange      EXHF   =         0.00000000
  -V(xc)+E(xc)   XCENC  =      2399.34183521
  PAW double counting   =     70120.35291802   -75922.55275113
  entropy T*S    EENTRO =         0.00000000
  eigenvalues    EBANDS =     -3751.54135812
  atomic energy  EATOM  =     75110.52157152
  Solvation  Ediel_sol  =         0.00000000
  ---------------------------------------------------
  free energy    TOTEN  =      -160.92980587 eV

  energy without entropy =     -160.92980587  energy(sigma->0) =     -160.92980587


--------------------------------------------------------------------------------------------------------




--------------------------------------- Iteration      1(  25)  ---------------------------------------


    POTLOK:  cpu time    0.7600: real time    0.7677
    SETDIJ:  cpu time    0.0200: real time    0.0166
     EDDAV:  cpu time   34.3880: real time   34.3919
       DOS:  cpu time    0.0000: real time    0.0007
    CHARGE:  cpu time    0.9880: real time    0.9860
    MIXING:  cpu time    0.0800: real time    0.0815
    --------------------------------------------
      LOOP:  cpu time   36.2360: real time   36.2443

 eigenvalue-minimisations  :  2080
 total energy-change (2. order) :-0.1173253E+01  (-0.5520511E-02)
 number of electron     593.9998358 magnetization       3.5196149
 augmentation part      380.2089667 magnetization       3.5118365

 Broyden mixing:
  rms(total) = 0.50759E-01    rms(broyden)= 0.50749E-01
  rms(prec ) = 0.52451E-01
  weight for this iteration     100.00

 eigenvalues of (default mixing * dielectric matrix)
  average eigenvalue GAMMA=   1.7516
 12.6854  6.2508  3.2047  1.7834  1.3080  1.3080  0.9726  0.9726  0.9624  0.7296
  0.7296  0.6969  0.6276  0.3236  0.4546  0.4368  0.4368  0.3674  0.3910  0.3910

 Free energy of the ion-electron system (eV)
  ---------------------------------------------------
  alpha Z        PSCENC =       101.18392075
  Ewald energy   TEWEN  =    272340.25418234
  -Hartree energ DENC   =   -340535.17036907
  -exchange      EXHF   =         0.00000000
  -V(xc)+E(xc)   XCENC  =      2397.99247017
  PAW double counting   =     70117.51142992   -75919.38931531
  entropy T*S    EENTRO =         0.00000000
  eigenvalues    EBANDS =     -3775.00694882
  atomic energy  EATOM  =     75110.52157152
  Solvation  Ediel_sol  =         0.00000000
  ---------------------------------------------------
  free energy    TOTEN  =      -162.10305850 eV

  energy without entropy =     -162.10305850  energy(sigma->0) =     -162.10305850


--------------------------------------------------------------------------------------------------------




--------------------------------------- Iteration      1(  26)  ---------------------------------------


    POTLOK:  cpu time    0.7640: real time    0.7684
    SETDIJ:  cpu time    0.0160: real time    0.0169
     EDDAV:  cpu time   33.9600: real time   33.9606
       DOS:  cpu time    0.0000: real time    0.0007
    CHARGE:  cpu time    0.9880: real time    0.9889
    MIXING:  cpu time    0.0920: real time    0.0891
    --------------------------------------------
      LOOP:  cpu time   35.8200: real time   35.8246

 eigenvalue-minimisations  :  2048
 total energy-change (2. order) :-0.3193007E+00  (-0.1499843E-02)
 number of electron     593.9998358 magnetization       2.7113491
 augmentation part      380.2450404 magnetization       2.7094469

 Broyden mixing:
  rms(total) = 0.36356E-01    rms(broyden)= 0.36352E-01
  rms(prec ) = 0.37443E-01
  weight for this iteration     100.00

 eigenvalues of (default mixing * dielectric matrix)
  average eigenvalue GAMMA=   1.7640
 12.8103  6.6800  3.4354  2.1857  1.2041  1.2041  0.9818  0.9818  1.0362  1.0362
  0.7228  0.7228  0.6882  0.5698  0.3236  0.4445  0.4445  0.3680  0.3943  0.3943
  0.4153

 Free energy of the ion-electron system (eV)
  ---------------------------------------------------
  alpha Z        PSCENC =       101.18392075
  Ewald energy   TEWEN  =    272340.25418234
  -Hartree energ DENC   =   -340527.93656862
  -exchange      EXHF   =         0.00000000
  -V(xc)+E(xc)   XCENC  =      2397.51431912
  PAW double counting   =     70122.78399698   -75923.52575123
  entropy T*S    EENTRO =         0.00000000
  eigenvalues    EBANDS =     -3783.21803007
  atomic energy  EATOM  =     75110.52157152
  Solvation  Ediel_sol  =         0.00000000
  ---------------------------------------------------
  free energy    TOTEN  =      -162.42235922 eV

  energy without entropy =     -162.42235922  energy(sigma->0) =     -162.42235922


--------------------------------------------------------------------------------------------------------




--------------------------------------- Iteration      1(  27)  ---------------------------------------


    POTLOK:  cpu time    0.7640: real time    0.7695
    SETDIJ:  cpu time    0.0160: real time    0.0168
     EDDAV:  cpu time   33.5320: real time   33.5342
       DOS:  cpu time    0.0000: real time    0.0007
    CHARGE:  cpu time    0.9880: real time    0.9849
    MIXING:  cpu time    0.0960: real time    0.0965
    --------------------------------------------
      LOOP:  cpu time   35.3960: real time   35.4027

 eigenvalue-minimisations  :  2016
 total energy-change (2. order) :-0.1809936E+00  (-0.1310170E-02)
 number of electron     593.9998358 magnetization       2.0911204
 augmentation part      380.2918822 magnetization       2.0824175

 Broyden mixing:
  rms(total) = 0.27994E-01    rms(broyden)= 0.27991E-01
  rms(prec ) = 0.28849E-01
  weight for this iteration     100.00

 eigenvalues of (default mixing * dielectric matrix)
  average eigenvalue GAMMA=   1.7809
 12.8959  7.2309  3.6046  2.4990  1.3200  1.3200  1.1737  1.1737  0.9553  0.9553
  0.7224  0.7224  0.7155  0.6127  0.5095  0.3236  0.4423  0.4423  0.3678  0.3934
  0.3934  0.4057

 Free energy of the ion-electron system (eV)
  ---------------------------------------------------
  alpha Z        PSCENC =       101.18392075
  Ewald energy   TEWEN  =    272340.25418234
  -Hartree energ DENC   =   -340521.67224033
  -exchange      EXHF   =         0.00000000
  -V(xc)+E(xc)   XCENC  =      2397.22875353
  PAW double counting   =     70125.06610692   -75924.49590949
  entropy T*S    EENTRO =         0.00000000
  eigenvalues    EBANDS =     -3790.68973804
  atomic energy  EATOM  =     75110.52157152
  Solvation  Ediel_sol  =         0.00000000
  ---------------------------------------------------
  free energy    TOTEN  =      -162.60335280 eV

  energy without entropy =     -162.60335280  energy(sigma->0) =     -162.60335280


--------------------------------------------------------------------------------------------------------




--------------------------------------- Iteration      1(  28)  ---------------------------------------


    POTLOK:  cpu time    0.7560: real time    0.7661
    SETDIJ:  cpu time    0.0160: real time    0.0168
     EDDAV:  cpu time   34.9240: real time   34.9223
       DOS:  cpu time    0.0000: real time    0.0008
    CHARGE:  cpu time    0.9840: real time    0.9869
    MIXING:  cpu time    0.1080: real time    0.1041
    --------------------------------------------
      LOOP:  cpu time   36.7880: real time   36.7970

 eigenvalue-minimisations  :  2120
 total energy-change (2. order) :-0.1439940E+00  (-0.7650282E-03)
[...]
  external pressure =       -1.20 kB  Pullay stress =        0.00 kB


 VOLUME and BASIS-vectors are now :
 -----------------------------------------------------------------------------
  energy-cutoff  :      295.45
  volume of cell :    21076.00
      direct lattice vectors                 reciprocal lattice vectors
    27.622485000  0.000000000  0.000000000     0.036202391  0.000000000  0.000000000
     0.000000000 27.622485000  0.000000000     0.000000000  0.036202391  0.000000000
     0.000000000  0.000000000 27.622485000     0.000000000  0.000000000  0.036202391

  length of vectors
    27.622485000 27.622485000 27.622485000     0.036202391  0.036202391  0.036202391


 FORCES acting on ions
    electron-ion (+dipol)            ewald-force                    non-local-force                 convergence-correction
 -----------------------------------------------------------------------------------------------
   -.386E+03 -.252E+04 -.185E+03   0.385E+03 0.252E+04 0.186E+03   0.124E+01 0.573E+01 -.405E+00   -.407E-03 0.930E-04 -.181E-04
   -.233E+04 -.344E+03 0.132E+04   0.232E+04 0.344E+03 -.131E+04   0.763E+01 0.365E+00 -.347E+01   -.928E-04 -.981E-04 -.184E-04
   0.117E+04 -.225E+04 0.425E+03   -.117E+04 0.225E+04 -.425E+03   -.356E+01 0.453E+01 -.664E+00   0.206E-04 0.117E-03 -.271E-04
   -.459E+03 -.217E+04 0.107E+04   0.459E+03 0.217E+04 -.107E+04   0.165E+00 0.218E+01 -.112E+01   -.118E-03 0.118E-03 -.332E-03
   -.174E+04 -.115E+04 -.144E+04   0.174E+04 0.115E+04 0.144E+04   0.163E+01 0.129E+01 0.224E+01   0.140E-03 -.133E-03 0.151E-03
   0.100E+04 -.184E+04 0.159E+04   -.999E+03 0.184E+04 -.159E+04   -.318E+01 0.407E+01 -.473E+01   0.105E-03 0.783E-04 -.557E-04
   -.240E+04 -.949E+03 0.646E+01   0.240E+04 0.948E+03 -.576E+01   0.430E+01 0.154E+01 -.682E+00   0.708E-04 -.651E-04 -.183E-03
   0.855E+03 -.212E+04 -.122E+04   -.853E+03 0.211E+04 0.121E+04   -.273E+01 0.555E+01 0.404E+01   -.181E-05 -.594E-05 -.193E-03
   -.627E+03 -.186E+04 -.151E+04   0.626E+03 0.185E+04 0.151E+04   0.997E+00 0.213E+01 0.887E+00   -.217E-03 0.890E-04 0.123E-03
   -.166E+04 -.203E+04 -.711E+02   0.166E+04 0.203E+04 0.720E+02   0.545E+01 0.428E+01 -.924E+00   0.200E-03 -.624E-04 -.262E-03
   -.233E+04 0.107E+03 -.118E+04   0.232E+04 -.104E+03 0.118E+04   0.799E+01 -.269E+01 0.366E+01   -.339E-04 0.581E-04 -.745E-04
   -.153E+04 -.154E+04 0.136E+04   0.153E+04 0.154E+04 -.136E+04   0.214E+01 0.192E+01 -.248E+01   0.102E-03 0.179E-04 -.185E-03
   -.123E+04 -.315E+03 0.224E+04   0.123E+04 0.314E+03 -.223E+04   0.220E+01 0.134E+01 -.276E+01   0.958E-04 -.770E-04 -.670E-04
   0.197E+04 -.118E+04 0.497E+03   -.197E+04 0.118E+04 -.496E+03   -.195E+01 0.735E+00 -.632E+00   0.835E-05 0.160E-03 -.228E-03
   -.125E+04 -.139E+03 0.625E+03   0.125E+04 0.139E+03 -.624E+03   0.148E+01 0.314E+00 -.146E+01   0.288E-03 0.125E-05 -.227E-03
   0.233E+03 -.885E+03 0.810E+03   -.234E+03 0.884E+03 -.809E+03   0.233E+00 0.118E+01 -.116E+01   -.137E-03 0.444E-04 -.279E-03
   -.309E+03 -.137E+04 0.218E+04   0.308E+03 0.137E+04 -.218E+04   0.100E+01 0.217E+01 -.352E+01   -.396E-04 -.306E-04 -.245E-04
   -.133E+04 0.394E+03 -.104E+04   0.133E+04 -.395E+03 0.104E+04   0.126E+01 0.876E+00 -.348E-01   -.542E-05 0.243E-04 -.139E-04
   -.116E+04 0.397E+03 -.231E+04   0.116E+04 -.394E+03 0.230E+04   0.215E+01 -.302E+01 0.589E+01   -.217E-04 0.976E-04 -.133E-04
   0.211E+04 -.124E+04 -.904E+03   -.210E+04 0.123E+04 0.902E+03   -.654E+01 0.230E+01 0.268E+01   0.229E-03 0.229E-03 0.596E-04
   -.248E+04 0.662E+03 -.420E+02   0.247E+04 -.661E+03 0.420E+02   0.403E+01 -.110E+01 -.290E-01   0.124E-03 0.982E-04 -.140E-03
   0.142E+04 -.876E+03 0.165E+04   -.142E+04 0.876E+03 -.165E+04   -.145E+01 0.857E-01 -.134E+01   0.310E-04 -.872E-04 -.329E-04
   0.105E+04 -.973E+03 -.213E+04   -.105E+04 0.971E+03 0.213E+04   -.241E+01 0.157E+01 0.418E+01   -.317E-04 0.141E-03 -.997E-04
   0.569E+03 -.129E+04 -.453E+03   -.568E+03 0.129E+04 0.453E+03   -.639E+00 0.189E+01 -.398E+00   -.239E-03 0.177E-03 0.705E-04
   -.410E+03 -.773E+03 -.244E+04   0.410E+03 0.772E+03 0.243E+04   0.978E-01 0.149E+01 0.875E+01   -.671E-05 -.247E-04 0.847E-04
   -.696E+02 -.290E+03 -.162E+04   0.696E+02 0.289E+03 0.162E+04   0.407E-02 0.556E+00 0.130E+01   0.434E-04 -.117E-03 -.111E-04
   -.818E+03 -.108E+04 -.201E+03   0.818E+03 0.108E+04 0.201E+03   0.365E+00 0.153E+01 0.303E+00   0.198E-03 -.102E-03 -.305E-04
   0.140E+04 0.195E+04 -.111E+04   -.139E+04 -.195E+04 0.110E+04   -.382E+01 -.569E+01 0.407E+01   0.537E-04 0.178E-03 0.550E-04
   -.845E+03 0.201E+04 0.112E+04   0.845E+03 -.201E+04 -.112E+04   0.632E+00 -.185E+01 -.169E+00   0.275E-03 -.789E-04 0.644E-04
   0.166E+04 0.181E+04 0.381E+03   -.166E+04 -.181E+04 -.381E+03   -.325E+01 -.247E+01 0.296E+00   -.201E-03 0.652E-04 0.721E-04
   0.272E+03 0.200E+04 0.151E+04   -.271E+03 -.199E+04 -.151E+04   -.621E+00 -.418E+01 -.350E+01   -.101E-03 -.994E-04 -.119E-03
   0.108E+03 0.192E+04 -.152E+04   -.108E+03 -.192E+04 0.152E+04   -.225E+00 -.203E+01 0.171E+01   -.237E-03 -.539E-04 -.131E-03
   0.149E+04 0.123E+04 0.155E+04   -.148E+04 -.123E+04 -.155E+04   -.476E+01 -.488E+01 -.637E+01   -.110E-03 -.314E-04 0.144E-04
   -.840E+03 0.240E+04 -.514E+03   0.839E+03 -.239E+04 0.512E+03   0.160E+01 -.618E+01 0.185E+01   0.849E-06 -.151E-04 -.123E-03
   0.229E+04 0.869E+03 -.647E+03   -.229E+04 -.867E+03 0.645E+03   -.318E+01 -.163E+01 0.242E+01   0.357E-04 -.197E-03 -.339E-05
   0.133E+04 0.983E+03 -.168E+04   -.133E+04 -.983E+03 0.168E+04   -.196E+01 0.232E+00 0.869E+00   -.119E-03 -.223E-03 -.163E-03
   0.611E+03 0.123E+04 -.228E+02   -.610E+03 -.123E+04 0.227E+02   -.471E+00 -.222E+01 0.450E-01   -.202E-03 -.478E-04 0.164E-03
   -.145E+04 0.155E+04 -.152E+04   0.144E+04 -.155E+04 0.151E+04   0.574E+01 -.170E+01 0.449E+01   0.995E-04 -.645E-04 -.845E-04
   0.328E+03 0.251E+04 0.404E+02   -.327E+03 -.251E+04 -.403E+02   -.116E+01 -.490E+01 -.661E-01   -.491E-05 -.845E-04 0.127E-03
   -.649E+03 0.109E+04 0.226E+04   0.648E+03 -.109E+04 -.225E+04   0.174E+01 -.138E+01 -.585E+01   0.213E-03 0.161E-03 -.242E-03
   0.236E+04 0.162E+03 0.767E+03   -.236E+04 -.163E+03 -.766E+03   -.482E+01 0.160E+01 -.110E+01   -.164E-04 0.264E-04 0.216E-04
   -.178E+04 0.956E+03 0.151E+04   0.178E+04 -.956E+03 -.151E+04   0.288E+01 -.166E+00 -.143E+01   0.827E-04 0.917E-04 -.207E-03
   0.758E+03 0.745E+03 0.152E+04   -.757E+03 -.745E+03 -.152E+04   -.139E+01 -.332E-01 0.916E+00   -.129E-03 0.120E-03 -.961E-04
   0.671E+02 -.232E+03 0.255E+04   -.670E+02 0.231E+03 -.254E+04   -.210E-01 0.891E+00 -.489E+01   0.866E-04 0.836E-04 -.683E-04
   -.805E+03 0.119E+04 -.110E+03   0.804E+03 -.119E+04 0.110E+03   0.108E+01 -.202E+01 0.393E+00   0.104E-03 -.173E-03 0.606E-05
   -.156E+03 0.116E+04 -.212E+04   0.156E+03 -.116E+04 0.212E+04   -.336E+00 -.951E+00 0.175E+01   -.220E-04 0.101E-03 -.286E-04
   0.255E+04 -.271E+03 -.477E+03   -.254E+04 0.269E+03 0.476E+03   -.817E+01 0.123E+01 0.106E+01   -.114E-03 -.210E-03 -.125E-03
   -.201E+04 0.168E+04 0.235E+03   0.200E+04 -.167E+04 -.235E+03   0.633E+01 -.387E+01 -.372E+00   -.797E-04 -.784E-04 -.142E-03
   0.137E+04 -.144E+03 0.210E+04   -.136E+04 0.143E+03 -.209E+04   -.442E+01 0.183E+01 -.799E+01   0.153E-04 0.278E-04 0.175E-03
   0.161E+04 -.151E+03 -.127E+04   -.161E+04 0.151E+03 0.127E+04   -.361E+00 -.113E+00 -.336E+00   0.495E-04 -.372E-05 0.163E-04
   0.143E+04 -.218E+02 0.231E+03   -.143E+04 0.222E+02 -.232E+03   -.683E+00 -.420E+00 0.473E+00   -.159E-03 -.134E-03 -.249E-03
   0.100E+04 0.422E+03 -.241E+04   -.998E+03 -.421E+03 0.241E+04   -.256E+01 -.150E+01 0.776E+01   0.145E-04 -.106E-03 0.112E-03
   0.180E+03 0.226E+03 -.533E+03   -.180E+03 -.226E+03 0.532E+03   0.100E+00 0.198E+00 0.195E+00   -.987E-04 -.118E-04 0.205E-03
   -.139E+03 0.351E+03 0.111E+04   0.138E+03 -.351E+03 -.111E+04   0.256E+00 -.369E+00 -.127E+01   0.232E-04 0.374E-04 -.322E-03
 -----------------------------------------------------------------------------------------------
   -.182E+00 -.414E+00 -.334E+01   -.594E-11 0.642E-11 -.682E-12   0.296E-01 0.225E+00 0.306E+01   -.237E-03 0.210E-04 -.310E-02
 
 
 POSITION                                       TOTAL-FORCE (eV/Angst)
 -----------------------------------------------------------------------------------
     14.22712     18.92738     14.75257         0.016993      0.012369     -0.038558
     17.82936     14.26689     11.80815         0.008851     -0.010663      0.035540
     11.99464     18.39139     13.72924        -0.036681      0.002311     -0.005404
     14.31862     17.64343     12.74306        -0.001337      0.001471      0.030012
     16.61291     15.87534     16.48805        -0.012607     -0.003201     -0.004462
     12.23573     17.18201     11.56638        -0.026387     -0.006914      0.017090
     17.56399     15.29704     14.20531         0.021196      0.013819      0.023439
     12.36301     18.51402     16.25491         0.001837      0.021662     -0.018796
     14.68141     17.40873     16.57578         0.002615     -0.016691     -0.024874
     16.37428     17.70546     14.48727        -0.034968      0.006288      0.000831
     18.21282     13.97926     16.24981        -0.027578      0.041993     -0.020296
     16.14778     16.15245     12.14429        -0.026960      0.001088      0.034783
     15.64291     14.02097     10.53286        -0.010275     -0.005187      0.028976
     11.08291     16.00073     13.34131        -0.027832     -0.006785     -0.014462
     15.84267     13.95348     13.03364        -0.006247     -0.037237     -0.029266
     13.45546     15.32561     12.74706        -0.002274     -0.017498      0.027239
     14.10681     15.95879     10.54543         0.032112      0.035962      0.046367
     16.05524     13.50740     15.46933         0.004949     -0.006212     -0.000773
     16.12378     13.86720     17.84882        -0.028671      0.015895     -0.013552
     10.65003     16.83312     15.57958        -0.001776     -0.034974      0.001862
     17.75542     12.70720     13.93846        -0.012777     -0.006141     -0.016240
     11.65827     14.77484     11.08848        -0.014223     -0.008588     -0.007916
     12.47680     16.31436     17.40412         0.002079      0.022530     -0.021172
     12.97551     16.58630     14.93172        -0.001510     -0.048090      0.028743
     14.81137     15.90858     18.52320         0.057447     -0.030248      0.010446
     14.19296     14.86042     16.53772        -0.001294     -0.032781      0.028247
     15.15207     15.75829     14.45700         0.008564     -0.007852      0.042472
     11.41197      9.92392     14.93450        -0.014629     -0.024198      0.018729
     15.05600      9.98048     12.00358         0.020964      0.020409     -0.015555
     10.88520     10.21680     12.46995         0.024294      0.035788     -0.004990
     12.81487      9.76680     10.96013         0.014054      0.022584      0.001505
     13.75759     10.38091     15.53396         0.016072     -0.029782      0.004261
     10.35041     10.74110     10.15911         0.010825      0.012557     -0.019795
     15.40790      9.15027     14.31024         0.003047      0.026716     -0.011166
     10.21088     11.91771     14.17630         0.024020      0.018387     -0.027024
     12.02349     12.17465     15.90306         0.018999      0.018568     -0.033074
     12.71254     11.42997     13.52569         0.011532     -0.014803      0.030350
     16.28056     11.01874     15.83731         0.021399      0.039082      0.041995
     13.12878      9.06330     13.34274        -0.037157      0.026516     -0.003847
     14.51115     11.56053     10.20026        -0.037311      0.003632      0.028062
      9.90346     12.65907     11.81766        -0.027149     -0.037330      0.022387
     16.52242     11.99567     11.66737         0.033160     -0.027625      0.003409
     12.09917     12.02478     11.02974        -0.059697      0.008126      0.010102
     13.31921     13.71128      9.69126         0.021627     -0.021977     -0.031240
     15.22634     11.65728     13.83645        -0.017212      0.004481     -0.032201
     14.34064     12.36816     16.81587         0.026505      0.015837     -0.025398
      9.65904     14.30876     14.40671        -0.002665     -0.004596     -0.030300
     17.23937     10.37081     13.38348         0.013472     -0.034773     -0.040185
     10.76210     13.15051      9.46828         0.027426     -0.032745     -0.013637
     11.70731     14.60408     15.68053         0.006790     -0.006484     -0.017524
     11.66132     13.61227     13.25057        -0.006537     -0.006810     -0.015355
     12.55151     13.75574     17.85113        -0.020962      0.025066     -0.010274
     13.76488     13.56516     14.51031         0.021443      0.007592     -0.019969
     13.95510     12.97763     12.05736         0.024443      0.059453      0.050456
 -----------------------------------------------------------------------------------
    total drift:                               -0.152624     -0.188683     -0.280029


--------------------------------------------------------------------------------------------------------



  FREE ENERGIE OF THE ION-ELECTRON SYSTEM (eV)
  ---------------------------------------------------
  free  energy   TOTEN  =      -163.34037894 eV

  energy  without entropy=     -163.34037894  energy(sigma->0) =     -163.34037894
 


--------------------------------------------------------------------------------------------------------


    POTLOK:  cpu time    0.7720: real time    0.7724


--------------------------------------------------------------------------------------------------------




--------------------------------------------------------------------------------------------------------


  
 reached required accuracy - stopping structural energy minimisation
     LOOP+:  cpu time 1681.4040: real time 1681.6918
    4ORBIT:  cpu time    0.0000: real time    0.0000
 


 total charge     
 
# of ion       s       p       d       tot
------------------------------------------
    1        0.474   0.224   9.237   9.935
    2        0.457   0.171   9.260   9.888
    3        0.457   0.213   9.233   9.903
    4        0.450   0.274   9.209   9.933
    5        0.430   0.274   9.216   9.921
    6        0.465   0.224   9.242   9.931
    7        0.431   0.270   9.214   9.915
    8        0.467   0.208   9.244   9.919
    9        0.438   0.283   9.215   9.937
   10        0.443   0.189   9.244   9.876
   11        0.470   0.152   9.264   9.886
   12        0.432   0.255   9.221   9.908
   13        0.449   0.255   9.220   9.924
   14        0.445   0.304   9.213   9.962
   15        0.488   0.451   9.197  10.136
   16        0.459   0.381   9.198  10.038
   17        0.450   0.217   9.239   9.906
   18        0.460   0.420   9.189  10.069
   19        0.444   0.200   9.253   9.897
   20        0.448   0.203   9.248   9.900
   21        0.429   0.246   9.231   9.906
   22        0.440   0.275   9.211   9.926
   23        0.443   0.251   9.226   9.921
   24        0.448   0.394   9.220  10.062
   25        0.457   0.161   9.267   9.886
   26        0.464   0.426   9.189  10.079
   27        0.467   0.431   9.197  10.095
   28        0.470   0.209   9.246   9.925
   29        0.450   0.259   9.216   9.925
   30        0.447   0.260   9.220   9.927
   31        0.455   0.208   9.236   9.900
   32        0.452   0.281   9.215   9.949
   33        0.466   0.156   9.270   9.892
   34        0.476   0.221   9.238   9.935
   35        0.460   0.259   9.225   9.944
   36        0.444   0.274   9.210   9.928
   37        0.457   0.379   9.203  10.039
   38        0.420   0.199   9.255   9.875
   39        0.460   0.232   9.227   9.919
   40        0.456   0.229   9.225   9.909
   41        0.430   0.218   9.240   9.888
   42        0.446   0.277   9.212   9.935
   43        0.458   0.410   9.199  10.067
   44        0.458   0.244   9.224   9.926
   45        0.444   0.388   9.208  10.040
   46        0.451   0.286   9.210   9.947
   47        0.456   0.173   9.258   9.887
   48        0.474   0.201   9.245   9.919
   49        0.465   0.164   9.267   9.896
   50        0.439   0.336   9.194   9.969
   51        0.454   0.402   9.187  10.043
   52        0.459   0.170   9.259   9.888
   53        0.433   0.398   9.195  10.026
   54        0.462   0.406   9.199  10.067
--------------------------------------------------
tot         24.449  14.596 498.180 537.224
 


 magnetization (x)
 
# of ion       s       p       d       tot
------------------------------------------
    1       -0.000  -0.000  -0.000  -0.000
    2       -0.000   0.000  -0.000  -0.000
    3        0.000  -0.000  -0.000  -0.000
    4       -0.000  -0.000  -0.000  -0.000
    5       -0.000   0.000  -0.000  -0.000
    6        0.000   0.000  -0.000  -0.000
    7       -0.000   0.000  -0.000  -0.000
    8        0.000   0.000  -0.000   0.000
    9       -0.000   0.000  -0.000  -0.000
   10        0.000   0.000  -0.000  -0.000
   11        0.000   0.000  -0.000  -0.000
   12       -0.000   0.000  -0.000  -0.000
   13       -0.000   0.000  -0.000  -0.000
   14       -0.000   0.000  -0.000  -0.000
   15       -0.000  -0.000  -0.000  -0.000
   16       -0.000  -0.000  -0.000  -0.000
   17       -0.000   0.000  -0.000  -0.000
   18       -0.000  -0.000  -0.000  -0.000
   19        0.000   0.000  -0.000  -0.000
   20        0.000   0.000  -0.000  -0.000
   21       -0.000   0.000  -0.000  -0.000
   22       -0.000   0.000  -0.000  -0.000
   23        0.000   0.000  -0.000  -0.000
   24       -0.000  -0.000  -0.000  -0.000
   25       -0.000   0.000  -0.000  -0.000
   26       -0.000  -0.000  -0.000  -0.000
   27       -0.000  -0.000  -0.000  -0.000
   28        0.000   0.000   0.000   0.000
   29       -0.000   0.000  -0.000  -0.000
   30       -0.000  -0.000  -0.000  -0.000
   31       -0.000  -0.000  -0.000  -0.000
   32       -0.000  -0.000  -0.000  -0.000
   33        0.000   0.000   0.000   0.000
   34       -0.000  -0.000  -0.000  -0.000
   35       -0.000   0.000  -0.000  -0.000
   36       -0.000  -0.000  -0.000  -0.000
   37       -0.000  -0.000  -0.000  -0.000
   38        0.000   0.000  -0.000  -0.000
   39       -0.000  -0.000  -0.000  -0.000
   40        0.000  -0.000  -0.000  -0.000
   41       -0.000  -0.000  -0.000  -0.000
   42        0.000   0.000  -0.000  -0.000
   43       -0.000  -0.000  -0.000  -0.000
   44       -0.000  -0.000  -0.000  -0.000
   45       -0.000  -0.000  -0.000  -0.000
   46       -0.000  -0.000  -0.000  -0.000
   47       -0.000   0.000  -0.000  -0.000
   48        0.000   0.000  -0.000   0.000
   49       -0.000  -0.000  -0.000  -0.000
   50       -0.000   0.000  -0.000  -0.000
   51       -0.000   0.000  -0.000  -0.000
   52        0.000  -0.000  -0.000  -0.000
   53       -0.000  -0.000  -0.000  -0.000
   54       -0.000  -0.000  -0.000  -0.000
--------------------------------------------------
tot         -0.000   0.000  -0.000  -0.000
 

 total amount of memory used by VASP MPI-rank0   132918. kBytes
=======================================================================

   base      :      30000. kBytes
   nonl-proj :      11152. kBytes
   fftplans  :      14824. kBytes
   grid      :      37758. kBytes
   one-center:         77. kBytes
   wavefun   :      39107. kBytes
 
  
  
 General timing and accounting informations for this job:
 ========================================================
  
                  Total CPU time used (sec):     1698.572
                            User time (sec):     1691.532
                          System time (sec):        7.040
                         Elapsed time (sec):     1698.976
  
                   Maximum memory used (kb):       43804.
                   Average memory used (kb):           0.
  
                          Minor page faults:        23478
                          Major page faults:           26
                 Voluntary context switches:          566
