 vasp.5.4.4.18Apr17-6-g9f103f2a35 (build Jan 23 2020 13:04:52) gamma-only       
  
 executed on           IFC91_ompi date 2020.12.27  20:12:08
 running on   44 total cores
 distrk:  each k-point on   44 cores,    1 groups
 distr:  one band on NCORES_PER_BAND=  11 cores,    4 groups


--------------------------------------------------------------------------------------------------------


 INCAR:
 POTCAR:    PAW_PBE Cu 22Jun2005                  
 POTCAR:    PAW_PBE Cu 22Jun2005                  
   VRHFIN =Cu: d10 p1                                                           
   LEXCH  = PE                                                                  
   EATOM  =  1390.9808 eV,  102.2342 Ry                                         
                                                                                
   TITEL  = PAW_PBE Cu 22Jun2005                                                
   LULTRA =        F    use ultrasoft PP ?                                      
   IUNSCR =        1    unscreen: 0-lin 1-nonlin 2-no                           
   RPACOR =    2.000    partial core radius                                     
   POMASS =   63.546; ZVAL   =   11.000    mass and valenz                      
   RCORE  =    2.300    outmost cutoff radius                                   
   RWIGS  =    2.200; RWIGS  =    1.164    wigner-seitz radius (au A)           
   ENMAX  =  295.446; ENMIN  =  221.585 eV                                      
   ICORE  =        3    local potential                                         
   LCOR   =        T    correct aug charges                                     
   LPAW   =        T    paw PP                                                  
   EAUG   =  586.980                                                            
   DEXC   =    0.000                                                            
   RMAX   =    2.344    core radius for proj-oper                               
   RAUG   =    1.300    factor for augmentation sphere                          
   RDEP   =    2.302    radius for radial grids                                 
   RDEPT  =    1.771    core radius for aug-charge                              
                                                                                
   Atomic configuration                                                         
    9 entries                                                                   
     n  l   j            E        occ.                                          
     1  0  0.50     -8850.2468   2.0000                                         
     2  0  0.50     -1062.3498   2.0000                                         
     2  1  1.50      -916.8226   6.0000                                         
     3  0  0.50      -114.6929   2.0000                                         
     3  1  1.50       -72.1325   6.0000                                         
     3  2  2.50        -5.0394  10.0000                                         
     4  0  0.50        -4.6097   1.0000                                         
     4  1  0.50        -4.0817   0.0000                                         
     4  3  2.50        -1.3606   0.0000                                         
   Description                                                                  
     l       E           TYP  RCUT    TYP  RCUT                                 
     2     -5.0393973     23  2.200                                             
     2     10.8846608     23  2.200                                             
     0     -4.6097109     23  2.200                                             
     0      8.2520465     23  2.200                                             
     1     -2.7211652     23  2.200                                             
     1     21.7055443     23  2.200                                             
     3      2.7211652     23  2.300                                             
  local pseudopotential read in
  partial core-charges read in
  partial kinetic energy density read in
  atomic valenz-charges read in
  non local Contribution for L=           2  read in
    real space projection operators read in
  non local Contribution for L=           2  read in
    real space projection operators read in
  non local Contribution for L=           0  read in
    real space projection operators read in
  non local Contribution for L=           0  read in
    real space projection operators read in
  non local Contribution for L=           1  read in
    real space projection operators read in
  non local Contribution for L=           1  read in
    real space projection operators read in
    PAW grid and wavefunctions read in
 
   number of l-projection  operators is LMAX  =           6
   number of lm-projection operators is LMMAX =          18
 
  PAW_PBE Cu 22Jun2005                  :
 energy of atom  1       EATOM=-1390.9808
 kinetic energy error for atom=    0.0452 (will be added to EATOM!!)
 
 
 POSCAR: unknown system                          
  positions in direct lattice
  No initial velocities read in
 exchange correlation table for  LEXCH =        8
   RHO(1)=    0.500       N(1)  =     2000
   RHO(2)=  100.500       N(2)  =     4000
 


--------------------------------------------------------------------------------------------------------


 ion  position               nearest neighbor table
   1  0.519  0.662  0.390-   2 2.26   3 2.46
   2  0.429  0.622  0.452-   1 2.26   3 2.33
   3  0.529  0.557  0.460-   4 2.28   2 2.33   1 2.46
   4  0.538  0.472  0.539-   3 2.28   5 2.30
   5  0.471  0.375  0.536-   6 2.24   4 2.30
   6  0.515  0.313  0.623-   5 2.24
 
  LATTYP: Found a simple cubic cell.
 ALAT       =    19.5095720000
  
  Lattice vectors:
  
 A1 = (  19.5095720000,   0.0000000000,   0.0000000000)
 A2 = (   0.0000000000,  19.5095720000,   0.0000000000)
 A3 = (   0.0000000000,   0.0000000000,  19.5095720000)


Analysis of symmetry for initial positions (statically):
=====================================================================
 Subroutine PRICEL returns:
 Original cell was already a primitive cell.
 

 Routine SETGRP: Setting up the symmetry group for a 
 simple cubic supercell.


 Subroutine GETGRP returns: Found  1 space group operations
 (whereof  1 operations were pure point group operations)
 out of a pool of 48 trial point group operations.


The static configuration has the point symmetry C_1 .


Analysis of symmetry for dynamics (positions and initial velocities):
=====================================================================
 Subroutine PRICEL returns:
 Original cell was already a primitive cell.
 

 Routine SETGRP: Setting up the symmetry group for a 
 simple cubic supercell.


 Subroutine GETGRP returns: Found  1 space group operations
 (whereof  1 operations were pure point group operations)
 out of a pool of 48 trial point group operations.


The dynamic configuration has the point symmetry C_1 .


Analysis of structural, dynamic, and magnetic symmetry:
=====================================================================
 Subroutine PRICEL returns:
 Original cell was already a primitive cell.
 

 Routine SETGRP: Setting up the symmetry group for a 
 simple cubic supercell.


 Subroutine GETGRP returns: Found  1 space group operations
 (whereof  1 operations were pure point group operations)
 out of a pool of 48 trial point group operations.


The magnetic configuration has the point symmetry C_1 .


 Subroutine INISYM returns: Found  1 space group operations
 (whereof  1 operations are pure point group operations),
 and found     1 'primitive' translations

 
 
 KPOINTS: Gamma-point only                        
  k-points in reciprocal lattice
Space group operators:
 irot       det(A)        alpha          n_x          n_y          n_z        tau_x        tau_y        tau_z
    1     1.000000     0.000000     1.000000     0.000000     0.000000     0.000000     0.000000     0.000000


--------------------------------------------------------------------------------------------------------




 Dimension of arrays:
   k-points           NKPTS =      1   k-points in BZ     NKDIM =      1   number of bands    NBANDS=     48
   number of dos      NEDOS =    301   number of ions     NIONS =      6
   non local maximal  LDIM  =      6   non local SUM 2l+1 LMDIM =     18
   total plane-waves  NPLWV = 592704
   max r-space proj   IRMAX =      1   max aug-charges    IRDMAX=   2511
   dimension x,y,z NGX =    84 NGY =   84 NGZ =   84
   dimension x,y,z NGXF=   168 NGYF=  168 NGZF=  168
   support grid    NGXF=   168 NGYF=  168 NGZF=  168
   ions per type =               6
   NGX,Y,Z   is equivalent  to a cutoff of   7.16,  7.16,  7.16 a.u.
   NGXF,Y,Z  is equivalent  to a cutoff of  14.32, 14.32, 14.32 a.u.

 SYSTEM =  unknown system                          
 POSCAR =  unknown system                          

 Startparameter for this run:
   NWRITE =      2    write-flag & timer
   PREC   = normal    normal or accurate (medium, high low for compatibility)
   ISTART =      0    job   : 0-new  1-cont  2-samecut
   ICHARG =      2    charge: 1-file 2-atom 10-const
   ISPIN  =      2    spin polarized calculation?
   LNONCOLLINEAR =      F non collinear calculations
   LSORBIT =      F    spin-orbit coupling
   INIWAV =      1    electr: 0-lowe 1-rand  2-diag
   LASPH  =      F    aspherical Exc in radial PAW
   METAGGA=      F    non-selfconsistent MetaGGA calc.

 Electronic Relaxation 1
   ENCUT  =  295.4 eV  21.71 Ry    4.66 a.u.  27.34 27.34 27.34*2*pi/ulx,y,z
   ENINI  =  295.4     initial cutoff
   ENAUG  =  587.0 eV  augmentation charge cutoff
   NELM   =     60;   NELMIN=  2; NELMDL= -5     # of ELM steps 
   EDIFF  = 0.1E-04   stopping-criterion for ELM
   LREAL  =      F    real-space projection
   NLSPLINE    = F    spline interpolate recip. space projectors
   LCOMPAT=      F    compatible to vasp.4.4
   GGA_COMPAT  = T    GGA compatible to vasp.4.4-vasp.4.6
   LMAXPAW     = -100 max onsite density
   LMAXMIX     =    2 max onsite mixed and CHGCAR
   VOSKOWN=      0    Vosko Wilk Nusair interpolation
   ROPT   =    0.00000
 Ionic relaxation
   EDIFFG = -.1E+00   stopping-criterion for IOM
   NSW    =    101    number of steps for IOM
   NBLOCK =      1;   KBLOCK =    101    inner block; outer block 
   IBRION =      2    ionic relax: 0-MD 1-quasi-New 2-CG
   NFREE  =      1    steps in history (QN), initial steepest desc. (CG)
   ISIF   =      2    stress and relaxation
   IWAVPR =     11    prediction:  0-non 1-charg 2-wave 3-comb
   ISYM   =      2    0-nonsym 1-usesym 2-fastsym
   LCORR  =      T    Harris-Foulkes like correction to forces

   POTIM  = 0.5000    time-step for ionic-motion
   TEIN   =    0.0    initial temperature
   TEBEG  =    0.0;   TEEND  =   0.0 temperature during run
   SMASS  =  -3.00    Nose mass-parameter (am)
   estimated Nose-frequenzy (Omega)   =  0.10E-29 period in steps =****** mass=  -0.870E-26a.u.
   SCALEE = 1.0000    scale energy and forces
   NPACO  =    256;   APACO  = 16.0  distance and # of slots for P.C.
   PSTRESS=    0.0 pullay stress

  Mass of Ions in am
   POMASS =  63.55
  Ionic Valenz
   ZVAL   =  11.00
  Atomic Wigner-Seitz radii
   RWIGS  =  -1.00
  virtual crystal weights 
   VCA    =   1.00
   NELECT =      66.0000    total number of electrons
   NUPDOWN=      -1.0000    fix difference up-down

 DOS related values:
   EMIN   =  10.00;   EMAX   =-10.00  energy-range for DOS
   EFERMI =   0.00
   ISMEAR =     0;   SIGMA  =   0.00  broadening in eV -4-tet -1-fermi 0-gaus

 Electronic relaxation 2 (details)
   IALGO  =     38    algorithm
   LDIAG  =      T    sub-space diagonalisation (order eigenvalues)
   LSUBROT=      F    optimize rotation matrix (better conditioning)
   TURBO    =      0    0=normal 1=particle mesh
   IRESTART =      0    0=no restart 2=restart with 2 vectors
   NREBOOT  =      0    no. of reboots
   NMIN     =      0    reboot dimension
   EREF     =   0.00    reference energy to select bands
   IMIX   =      4    mixing-type and parameters
     AMIX     =   0.40;   BMIX     =  1.00
     AMIX_MAG =   1.60;   BMIX_MAG =  1.00
     AMIN     =   0.10
     WC   =   100.;   INIMIX=   1;  MIXPRE=   1;  MAXMIX= -45

 Intra band minimization:
   WEIMIN = 0.0010     energy-eigenvalue tresh-hold
   EBREAK =  0.52E-07  absolut break condition
   DEPER  =   0.30     relativ break condition  

   TIME   =   0.40     timestep for ELM

  volume/ion in A,a.u.               =    1237.63      8351.96
  Fermi-wavevector in a.u.,A,eV,Ry     =   0.339111  0.640827  1.564618  0.114996
  Thomas-Fermi vector in A             =   1.241723
 
 Write flags
   LWAVE        =      F    write WAVECAR
   LDOWNSAMPLE  =      F    k-point downsampling of WAVECAR
   LCHARG       =      F    write CHGCAR
   LVTOT        =      F    write LOCPOT, total local potential
   LVHAR        =      F    write LOCPOT, Hartree potential only
   LELF         =      F    write electronic localiz. function (ELF)
   LORBIT       =     11    0 simple, 1 ext, 2 COOP (PROOUT), +10 PAW based schemes


 Dipole corrections
   LMONO  =      F    monopole corrections only (constant potential shift)
   LDIPOL =      F    correct potential (dipole corrections)
   IDIPOL =      0    1-x, 2-y, 3-z, 4-all directions 
   EPSILON=  1.0000000 bulk dielectric constant

 Exchange correlation treatment:
   GGA     =    PE    GGA type
   LEXCH   =     8    internal setting for exchange type
   VOSKOWN=      0    Vosko Wilk Nusair interpolation
   LHFCALC =     F    Hartree Fock is set to
   LHFONE  =     F    Hartree Fock one center treatment
   AEXX    =    0.0000 exact exchange contribution

 Linear response parameters
   LEPSILON=     F    determine dielectric tensor
   LRPA    =     F    only Hartree local field effects (RPA)
   LNABLA  =     F    use nabla operator in PAW spheres
   LVEL    =     F    velocity operator in full k-point grid
   LINTERFAST=   F  fast interpolation
   KINTER  =     0    interpolate to denser k-point grid
   CSHIFT  =0.1000    complex shift for real part using Kramers Kronig
   OMEGAMAX=  -1.0    maximum frequency
   DEG_THRESHOLD= 0.2000000E-02 threshold for treating states as degnerate
   RTIME   =   -0.100 relaxation time in fs
  (WPLASMAI=    0.000 imaginary part of plasma frequency in eV, 0.658/RTIME)
   DFIELD  = 0.0000000 0.0000000 0.0000000 field for delta impulse in time
 
 Orbital magnetization related:
   ORBITALMAG=     F  switch on orbital magnetization
   LCHIMAG   =     F  perturbation theory with respect to B field
   DQ        =  0.001000  dq finite difference perturbation B field
   LLRAUG    =     F  two centre corrections for induced B field



--------------------------------------------------------------------------------------------------------


 conjugate gradient relaxation of ions
 charge density and potential will be updated during run
 spin polarized calculation
 Variant of blocked Davidson
 Davidson routine will perform the subspace rotation
 perform sub-space diagonalisation
    after iterative eigenvector-optimisation
 modified Broyden-mixing scheme, WC =      100.0
 initial mixing is a Kerker type mixing with AMIX =  0.4000 and BMIX =      1.0000
 Hartree-type preconditioning will be used
 using additional bands           15
 reciprocal scheme for non local part
 use partial core corrections
 calculate Harris-corrections to forces 
   (improved forces if not selfconsistent)
 use gradient corrections 
 use of overlap-Matrix (Vanderbilt PP)
 Gauss-broadening in eV      SIGMA  =   0.00


--------------------------------------------------------------------------------------------------------


  energy-cutoff  :      295.45
  volume of cell :     7425.80
      direct lattice vectors                 reciprocal lattice vectors
    19.509572000  0.000000000  0.000000000     0.051256891  0.000000000  0.000000000
     0.000000000 19.509572000  0.000000000     0.000000000  0.051256891  0.000000000
     0.000000000  0.000000000 19.509572000     0.000000000  0.000000000  0.051256891

  length of vectors
    19.509572000 19.509572000 19.509572000     0.051256891  0.051256891  0.051256891


 
 k-points in units of 2pi/SCALE and weight: Gamma-point only                        
   0.00000000  0.00000000  0.00000000       1.000
 
 k-points in reciprocal lattice and weights: Gamma-point only                        
   0.00000000  0.00000000  0.00000000       1.000
 
 position of ions in fractional coordinates (direct lattice) 
   0.51887122  0.66161196  0.39032815
   0.42899805  0.62174393  0.45184745
   0.52865800  0.55685802  0.45976636
   0.53787935  0.47153632  0.53896331
   0.47096906  0.37480991  0.53612847
   0.51462432  0.31343985  0.62296625
 
 position of ions in cartesian coordinates  (Angst):
  10.12295543 12.90776617  7.61513515
   8.36956834 12.12995797  8.81535036
  10.31389131 10.86406163  8.96984490
  10.49379591  9.19947179 10.51494350
   9.18840479  7.31238093 10.45963699
  10.04010022  6.11507732 12.15380491
 


--------------------------------------------------------------------------------------------------------


 use parallel FFT for orbitals z direction half grid
 k-point  1 :   0.0000 0.0000 0.0000  plane waves:   42844

 maximum and minimum number of plane-waves per node :      3900     3891

 maximum number of plane-waves:     42844
 maximum index in each direction: 
   IXMAX=   27   IYMAX=   27   IZMAX=   27
   IXMIN=  -27   IYMIN=  -27   IZMIN=    0


 parallel 3D FFT for wavefunctions:
    minimum data exchange during FFTs selected (reduces bandwidth)
 parallel 3D FFT for charge:
    minimum data exchange during FFTs selected (reduces bandwidth)


 total amount of memory used by VASP MPI-rank0    50204. kBytes
=======================================================================

   base      :      30000. kBytes
   nonl-proj :        936. kBytes
   fftplans  :       5011. kBytes
   grid      :      12741. kBytes
   one-center:         15. kBytes
   wavefun   :       1501. kBytes
 
     INWAV:  cpu time    0.0000: real time    0.0000
 Broyden mixing: mesh for mixing (old mesh)
   NGX = 55   NGY = 55   NGZ = 55
  (NGX  =168   NGY  =168   NGZ  =168)
  gives a total of 166375 points

 initial charge density was supplied:
 charge density of overlapping atoms calculated
 number of electron      66.0000000 magnetization      18.0000000
 keeping initial charge density in first step


--------------------------------------------------------------------------------------------------------


 Maximum index for augmentation-charges          205 (set IRDMAX)


--------------------------------------------------------------------------------------------------------


 First call to EWALD:  gamma=   0.091
 Maximum number of real-space cells 3x 3x 3
 Maximum number of reciprocal cells 3x 3x 3

    FEWALD:  cpu time    0.0040: real time    0.0012


--------------------------------------- Iteration      1(   1)  ---------------------------------------


    POTLOK:  cpu time    0.2160: real time    0.2255
    SETDIJ:  cpu time    0.0080: real time    0.0053
     EDDAV:  cpu time    0.3920: real time    0.4006
       DOS:  cpu time    0.0000: real time    0.0002
    --------------------------------------------
      LOOP:  cpu time    0.6160: real time    0.6317

 eigenvalue-minimisations  :   192
 total energy-change (2. order) : 0.4121784E+03  (-0.9262965E+03)
 number of electron      66.0000000 magnetization      18.0000000
 augmentation part       66.0000000 magnetization      18.0000000

 Free energy of the ion-electron system (eV)
  ---------------------------------------------------
  alpha Z        PSCENC =         3.54545109
  Ewald energy   TEWEN  =      3231.49114671
  -Hartree energ DENC   =    -10853.83515050
  -exchange      EXHF   =         0.00000000
  -V(xc)+E(xc)   XCENC  =       271.97695759
  PAW double counting   =      7363.30307882    -7997.37526114
  entropy T*S    EENTRO =        -0.00000000
  eigenvalues    EBANDS =        47.45871583
  atomic energy  EATOM  =      8345.61350795
  Solvation  Ediel_sol  =         0.00000000
  ---------------------------------------------------
  free energy    TOTEN  =       412.17844634 eV

  energy without entropy =      412.17844634  energy(sigma->0) =      412.17844634


--------------------------------------------------------------------------------------------------------




--------------------------------------- Iteration      1(   2)  ---------------------------------------


     EDDAV:  cpu time    0.4800: real time    0.4860
       DOS:  cpu time    0.0000: real time    0.0002
    --------------------------------------------
      LOOP:  cpu time    0.4800: real time    0.4862

 eigenvalue-minimisations  :   256
 total energy-change (2. order) :-0.2877674E+03  (-0.2457268E+03)
 number of electron      66.0000000 magnetization      18.0000000
 augmentation part       66.0000000 magnetization      18.0000000

 Free energy of the ion-electron system (eV)
  ---------------------------------------------------
  alpha Z        PSCENC =         3.54545109
  Ewald energy   TEWEN  =      3231.49114671
  -Hartree energ DENC   =    -10853.83515050
  -exchange      EXHF   =         0.00000000
  -V(xc)+E(xc)   XCENC  =       271.97695759
  PAW double counting   =      7363.30307882    -7997.37526114
  entropy T*S    EENTRO =         0.00000000
  eigenvalues    EBANDS =      -240.30868896
  atomic energy  EATOM  =      8345.61350795
  Solvation  Ediel_sol  =         0.00000000
  ---------------------------------------------------
  free energy    TOTEN  =       124.41104156 eV

  energy without entropy =      124.41104156  energy(sigma->0) =      124.41104156


--------------------------------------------------------------------------------------------------------




--------------------------------------- Iteration      1(   3)  ---------------------------------------


     EDDAV:  cpu time    0.4880: real time    0.4964
       DOS:  cpu time    0.0000: real time    0.0002
    --------------------------------------------
      LOOP:  cpu time    0.4880: real time    0.4965

 eigenvalue-minimisations  :   264
 total energy-change (2. order) :-0.1098422E+03  (-0.9923967E+02)
 number of electron      66.0000000 magnetization      18.0000000
 augmentation part       66.0000000 magnetization      18.0000000

 Free energy of the ion-electron system (eV)
  ---------------------------------------------------
  alpha Z        PSCENC =         3.54545109
  Ewald energy   TEWEN  =      3231.49114671
  -Hartree energ DENC   =    -10853.83515050
  -exchange      EXHF   =         0.00000000
  -V(xc)+E(xc)   XCENC  =       271.97695759
  PAW double counting   =      7363.30307882    -7997.37526114
  entropy T*S    EENTRO =         0.00000000
  eigenvalues    EBANDS =      -350.15092829
  atomic energy  EATOM  =      8345.61350795
  Solvation  Ediel_sol  =         0.00000000
  ---------------------------------------------------
  free energy    TOTEN  =        14.56880222 eV

  energy without entropy =       14.56880222  energy(sigma->0) =       14.56880222


--------------------------------------------------------------------------------------------------------




--------------------------------------- Iteration      1(   4)  ---------------------------------------


     EDDAV:  cpu time    0.4720: real time    0.4968
       DOS:  cpu time    0.0000: real time    0.0002
    --------------------------------------------
      LOOP:  cpu time    0.4720: real time    0.4970

 eigenvalue-minimisations  :   256
 total energy-change (2. order) :-0.1731111E+02  (-0.1563869E+02)
 number of electron      66.0000000 magnetization      18.0000000
 augmentation part       66.0000000 magnetization      18.0000000

 Free energy of the ion-electron system (eV)
  ---------------------------------------------------
  alpha Z        PSCENC =         3.54545109
  Ewald energy   TEWEN  =      3231.49114671
  -Hartree energ DENC   =    -10853.83515050
  -exchange      EXHF   =         0.00000000
  -V(xc)+E(xc)   XCENC  =       271.97695759
  PAW double counting   =      7363.30307882    -7997.37526114
  entropy T*S    EENTRO =         0.00000000
  eigenvalues    EBANDS =      -367.46204052
  atomic energy  EATOM  =      8345.61350795
  Solvation  Ediel_sol  =         0.00000000
  ---------------------------------------------------
  free energy    TOTEN  =        -2.74231001 eV

  energy without entropy =       -2.74231001  energy(sigma->0) =       -2.74231001


--------------------------------------------------------------------------------------------------------




--------------------------------------- Iteration      1(   5)  ---------------------------------------


     EDDAV:  cpu time    0.4760: real time    0.4915
       DOS:  cpu time    0.0000: real time    0.0003
    CHARGE:  cpu time    0.0360: real time    0.0355
    MIXING:  cpu time    0.0080: real time    0.0060
    --------------------------------------------
      LOOP:  cpu time    0.5200: real time    0.5334

 eigenvalue-minimisations  :   256
 total energy-change (2. order) :-0.1005806E+01  (-0.8754534E+00)
 number of electron      65.9999987 magnetization      15.8949948
 augmentation part       39.7061271 magnetization      14.8434776

 Broyden mixing:
  rms(total) = 0.42149E+01    rms(broyden)= 0.42127E+01
  rms(prec ) = 0.42574E+01
  weight for this iteration     100.00

 Free energy of the ion-electron system (eV)
  ---------------------------------------------------
  alpha Z        PSCENC =         3.54545109
  Ewald energy   TEWEN  =      3231.49114671
  -Hartree energ DENC   =    -10853.83515050
  -exchange      EXHF   =         0.00000000
  -V(xc)+E(xc)   XCENC  =       271.97695759
  PAW double counting   =      7363.30307882    -7997.37526114
  entropy T*S    EENTRO =         0.00000000
  eigenvalues    EBANDS =      -368.46784621
  atomic energy  EATOM  =      8345.61350795
  Solvation  Ediel_sol  =         0.00000000
  ---------------------------------------------------
  free energy    TOTEN  =        -3.74811570 eV

  energy without entropy =       -3.74811570  energy(sigma->0) =       -3.74811570


--------------------------------------------------------------------------------------------------------




--------------------------------------- Iteration      1(   6)  ---------------------------------------


    POTLOK:  cpu time    0.2040: real time    0.2148
    SETDIJ:  cpu time    0.0040: real time    0.0052
     EDDAV:  cpu time    0.4200: real time    0.4203
       DOS:  cpu time    0.0000: real time    0.0003
    CHARGE:  cpu time    0.0360: real time    0.0341
    MIXING:  cpu time    0.0040: real time    0.0060
    --------------------------------------------
      LOOP:  cpu time    0.6680: real time    0.6807

 eigenvalue-minimisations  :   216
 total energy-change (2. order) : 0.5652152E+02  (-0.3047608E+02)
 number of electron      66.0000007 magnetization      14.7141269
 augmentation part       45.5537919 magnetization       7.1078212

 Broyden mixing:
  rms(total) = 0.17483E+01    rms(broyden)= 0.17444E+01
  rms(prec ) = 0.18452E+01
  weight for this iteration     100.00

 eigenvalues of (default mixing * dielectric matrix)
  average eigenvalue GAMMA=   0.9281
  0.9281

 Free energy of the ion-electron system (eV)
  ---------------------------------------------------
  alpha Z        PSCENC =         3.54545109
  Ewald energy   TEWEN  =      3231.49114671
  -Hartree energ DENC   =    -10701.93022475
  -exchange      EXHF   =         0.00000000
  -V(xc)+E(xc)   XCENC  =       309.06308632
  PAW double counting   =      7321.06756786    -7930.10825742
  entropy T*S    EENTRO =         0.00000000
  eigenvalues    EBANDS =      -525.96887157
  atomic energy  EATOM  =      8345.61350795
  Solvation  Ediel_sol  =         0.00000000
  ---------------------------------------------------
  free energy    TOTEN  =        52.77340617 eV

  energy without entropy =       52.77340617  energy(sigma->0) =       52.77340617


--------------------------------------------------------------------------------------------------------




--------------------------------------- Iteration      1(   7)  ---------------------------------------


    POTLOK:  cpu time    0.2040: real time    0.2403
    SETDIJ:  cpu time    0.0080: real time    0.0051
     EDDAV:  cpu time    0.4400: real time    0.4426
       DOS:  cpu time    0.0000: real time    0.0003
    CHARGE:  cpu time    0.0360: real time    0.0334
    MIXING:  cpu time    0.0040: real time    0.0068
    --------------------------------------------
      LOOP:  cpu time    0.6960: real time    0.7286

 eigenvalue-minimisations  :   232
 total energy-change (2. order) :-0.1883683E+02  (-0.1063090E+02)
 number of electron      65.9999993 magnetization      13.1936028
 augmentation part       42.6823248 magnetization       7.4779856

 Broyden mixing:
  rms(total) = 0.70971E+00    rms(broyden)= 0.70893E+00
  rms(prec ) = 0.74626E+00
  weight for this iteration     100.00

 eigenvalues of (default mixing * dielectric matrix)
  average eigenvalue GAMMA=   0.8459
  1.0739  0.6180

 Free energy of the ion-electron system (eV)
  ---------------------------------------------------
  alpha Z        PSCENC =         3.54545109
  Ewald energy   TEWEN  =      3231.49114671
  -Hartree energ DENC   =    -10830.45210304
  -exchange      EXHF   =         0.00000000
  -V(xc)+E(xc)   XCENC  =       299.36404623
  PAW double counting   =      7481.90516055    -8137.78350345
  entropy T*S    EENTRO =         0.00000000
  eigenvalues    EBANDS =      -359.74713368
  atomic energy  EATOM  =      8345.61350795
  Solvation  Ediel_sol  =         0.00000000
  ---------------------------------------------------
  free energy    TOTEN  =        33.93657236 eV

  energy without entropy =       33.93657236  energy(sigma->0) =       33.93657236


--------------------------------------------------------------------------------------------------------




--------------------------------------- Iteration      1(   8)  ---------------------------------------


    POTLOK:  cpu time    0.2080: real time    0.2423
    SETDIJ:  cpu time    0.0040: real time    0.0051
     EDDAV:  cpu time    0.5080: real time    0.5099
       DOS:  cpu time    0.0000: real time    0.0003
    CHARGE:  cpu time    0.0360: real time    0.0339
    MIXING:  cpu time    0.0080: real time    0.0065
    --------------------------------------------
      LOOP:  cpu time    0.7600: real time    0.7980

 eigenvalue-minimisations  :   280
 total energy-change (2. order) : 0.2169446E+01  (-0.1090225E+01)
 number of electron      65.9999990 magnetization      12.4700141
 augmentation part       42.4075903 magnetization       6.7108626

 Broyden mixing:
  rms(total) = 0.61302E+00    rms(broyden)= 0.61133E+00
  rms(prec ) = 0.68110E+00
  weight for this iteration     100.00

 eigenvalues of (default mixing * dielectric matrix)
  average eigenvalue GAMMA=   0.7666
  1.1036  0.5981  0.5981

 Free energy of the ion-electron system (eV)
  ---------------------------------------------------
  alpha Z        PSCENC =         3.54545109
  Ewald energy   TEWEN  =      3231.49114671
  -Hartree energ DENC   =    -10849.96876495
  -exchange      EXHF   =         0.00000000
  -V(xc)+E(xc)   XCENC  =       300.79601971
  PAW double counting   =      7597.16532876    -8251.86724598
  entropy T*S    EENTRO =         0.00000000
  eigenvalues    EBANDS =      -340.66942477
  atomic energy  EATOM  =      8345.61350795
  Solvation  Ediel_sol  =         0.00000000
  ---------------------------------------------------
  free energy    TOTEN  =        36.10601852 eV

  energy without entropy =       36.10601852  energy(sigma->0) =       36.10601852


--------------------------------------------------------------------------------------------------------




--------------------------------------- Iteration      1(   9)  ---------------------------------------


    POTLOK:  cpu time    0.2040: real time    0.2206
    SETDIJ:  cpu time    0.0040: real time    0.0051
     EDDAV:  cpu time    0.5080: real time    0.5095
       DOS:  cpu time    0.0000: real time    0.0003
    CHARGE:  cpu time    0.0360: real time    0.0337
    MIXING:  cpu time    0.0040: real time    0.0069
    --------------------------------------------
      LOOP:  cpu time    0.7560: real time    0.7761

 eigenvalue-minimisations  :   280
 total energy-change (2. order) :-0.4919609E+01  (-0.1032563E+01)
 number of electron      65.9999994 magnetization      11.3479304
 augmentation part       42.5157767 magnetization       5.7230524

 Broyden mixing:
  rms(total) = 0.45560E+00    rms(broyden)= 0.45326E+00
  rms(prec ) = 0.49897E+00
  weight for this iteration     100.00

 eigenvalues of (default mixing * dielectric matrix)
  average eigenvalue GAMMA=   0.7568
  0.9707  0.9707  0.7539  0.3320

 Free energy of the ion-electron system (eV)
  ---------------------------------------------------
  alpha Z        PSCENC =         3.54545109
  Ewald energy   TEWEN  =      3231.49114671
  -Hartree energ DENC   =    -10848.01627002
  -exchange      EXHF   =         0.00000000
  -V(xc)+E(xc)   XCENC  =       296.95168175
  PAW double counting   =      7620.01679022    -8272.00411664
  entropy T*S    EENTRO =         0.00000000
  eigenvalues    EBANDS =      -346.41178176
  atomic energy  EATOM  =      8345.61350795
  Solvation  Ediel_sol  =         0.00000000
  ---------------------------------------------------
  free energy    TOTEN  =        31.18640930 eV

  energy without entropy =       31.18640930  energy(sigma->0) =       31.18640930


--------------------------------------------------------------------------------------------------------




--------------------------------------- Iteration      1(  10)  ---------------------------------------


    POTLOK:  cpu time    0.2040: real time    0.2147
    SETDIJ:  cpu time    0.0080: real time    0.0052
     EDDAV:  cpu time    0.4960: real time    0.4982
       DOS:  cpu time    0.0000: real time    0.0003
    CHARGE:  cpu time    0.0360: real time    0.0341
    MIXING:  cpu time    0.0080: real time    0.0070
    --------------------------------------------
      LOOP:  cpu time    0.7520: real time    0.7594

 eigenvalue-minimisations  :   272
 total energy-change (2. order) :-0.1002209E+02  (-0.4055767E+00)
 number of electron      65.9999993 magnetization       9.9686023
 augmentation part       42.6062781 magnetization       6.3980561

 Broyden mixing:
  rms(total) = 0.45238E+00    rms(broyden)= 0.45094E+00
  rms(prec ) = 0.46918E+00
  weight for this iteration     100.00

 eigenvalues of (default mixing * dielectric matrix)
  average eigenvalue GAMMA=   0.7412
  1.1487  1.1487  0.7393  0.3922  0.2770

 Free energy of the ion-electron system (eV)
  ---------------------------------------------------
  alpha Z        PSCENC =         3.54545109
  Ewald energy   TEWEN  =      3231.49114671
  -Hartree energ DENC   =    -10846.22593845
  -exchange      EXHF   =         0.00000000
  -V(xc)+E(xc)   XCENC  =       288.69609344
  PAW double counting   =      7646.93663023    -8294.39034255
  entropy T*S    EENTRO =         0.00000000
  eigenvalues    EBANDS =      -354.50223047
  atomic energy  EATOM  =      8345.61350795
  Solvation  Ediel_sol  =         0.00000000
  ---------------------------------------------------
  free energy    TOTEN  =        21.16431795 eV

  energy without entropy =       21.16431795  energy(sigma->0) =       21.16431795


--------------------------------------------------------------------------------------------------------




--------------------------------------- Iteration      1(  11)  ---------------------------------------


    POTLOK:  cpu time    0.2040: real time    0.2188
    SETDIJ:  cpu time    0.0040: real time    0.0053
     EDDAV:  cpu time    0.4880: real time    0.4866
       DOS:  cpu time    0.0000: real time    0.0003
    CHARGE:  cpu time    0.0320: real time    0.0340
    MIXING:  cpu time    0.0080: real time    0.0072
    --------------------------------------------
      LOOP:  cpu time    0.7360: real time    0.7522

 eigenvalue-minimisations  :   264
 total energy-change (2. order) :-0.4536447E+01  (-0.2581224E+00)
 number of electron      65.9999995 magnetization       8.1629540
 augmentation part       42.6601072 magnetization       4.8356920

 Broyden mixing:
  rms(total) = 0.31607E+00    rms(broyden)= 0.31597E+00
  rms(prec ) = 0.32513E+00
  weight for this iteration     100.00

 eigenvalues of (default mixing * dielectric matrix)
  average eigenvalue GAMMA=   0.8712
  1.5605  1.5605  0.5979  0.5979  0.5807  0.3300

 Free energy of the ion-electron system (eV)
  ---------------------------------------------------
  alpha Z        PSCENC =         3.54545109
  Ewald energy   TEWEN  =      3231.49114671
  -Hartree energ DENC   =    -10854.05433645
  -exchange      EXHF   =         0.00000000
  -V(xc)+E(xc)   XCENC  =       285.56896187
  PAW double counting   =      7691.34085921    -8336.54142059
  entropy T*S    EENTRO =         0.00000000
  eigenvalues    EBANDS =      -350.33629908
  atomic energy  EATOM  =      8345.61350795
  Solvation  Ediel_sol  =         0.00000000
  ---------------------------------------------------
  free energy    TOTEN  =        16.62787070 eV

  energy without entropy =       16.62787070  energy(sigma->0) =       16.62787070


--------------------------------------------------------------------------------------------------------




--------------------------------------- Iteration      1(  12)  ---------------------------------------


    POTLOK:  cpu time    0.2040: real time    0.2189
    SETDIJ:  cpu time    0.0080: real time    0.0052
     EDDAV:  cpu time    0.4400: real time    0.4427
       DOS:  cpu time    0.0000: real time    0.0003
    CHARGE:  cpu time    0.0360: real time    0.0337
    MIXING:  cpu time    0.0080: real time    0.0078
    --------------------------------------------
      LOOP:  cpu time    0.6960: real time    0.7086

 eigenvalue-minimisations  :   232
 total energy-change (2. order) :-0.9050534E+01  (-0.5025108E+00)
 number of electron      65.9999996 magnetization       6.7411729
 augmentation part       42.5813507 magnetization       3.8403885

 Broyden mixing:
  rms(total) = 0.22141E+00    rms(broyden)= 0.22130E+00
  rms(prec ) = 0.22718E+00
  weight for this iteration     100.00

 eigenvalues of (default mixing * dielectric matrix)
  average eigenvalue GAMMA=   1.0253
  2.0880  2.0880  0.7505  0.7505  0.7157  0.4517  0.3330

 Free energy of the ion-electron system (eV)
  ---------------------------------------------------
  alpha Z        PSCENC =         3.54545109
  Ewald energy   TEWEN  =      3231.49114671
  -Hartree energ DENC   =    -10861.39327350
  -exchange      EXHF   =         0.00000000
  -V(xc)+E(xc)   XCENC  =       278.74114182
  PAW double counting   =      7714.43079192    -8357.28707391
  entropy T*S    EENTRO =        -0.00000000
  eigenvalues    EBANDS =      -347.56435581
  atomic energy  EATOM  =      8345.61350795
  Solvation  Ediel_sol  =         0.00000000
  ---------------------------------------------------
  free energy    TOTEN  =         7.57733626 eV

  energy without entropy =        7.57733626  energy(sigma->0) =        7.57733626


--------------------------------------------------------------------------------------------------------




--------------------------------------- Iteration      1(  13)  ---------------------------------------


    POTLOK:  cpu time    0.2040: real time    0.2182
    SETDIJ:  cpu time    0.0040: real time    0.0051
     EDDAV:  cpu time    0.5200: real time    0.5203
       DOS:  cpu time    0.0040: real time    0.0004
    CHARGE:  cpu time    0.0320: real time    0.0336
    MIXING:  cpu time    0.0080: real time    0.0078
    --------------------------------------------
      LOOP:  cpu time    0.7720: real time    0.7855

 eigenvalue-minimisations  :   288
 total energy-change (2. order) :-0.6683418E+01  (-0.3101591E+00)
 number of electron      65.9999998 magnetization       5.0739634
 augmentation part       42.5617751 magnetization       2.5010009

 Broyden mixing:
  rms(total) = 0.15686E+00    rms(broyden)= 0.15677E+00
  rms(prec ) = 0.16143E+00
  weight for this iteration     100.00

 eigenvalues of (default mixing * dielectric matrix)
  average eigenvalue GAMMA=   1.0781
  2.4418  2.4418  0.8018  0.8018  0.6681  0.6681  0.4680  0.3335

 Free energy of the ion-electron system (eV)
  ---------------------------------------------------
  alpha Z        PSCENC =         3.54545109
  Ewald energy   TEWEN  =      3231.49114671
  -Hartree energ DENC   =    -10858.99210524
  -exchange      EXHF   =         0.00000000
  -V(xc)+E(xc)   XCENC  =       273.34545050
  PAW double counting   =      7695.20818248    -8336.46843288
  entropy T*S    EENTRO =         0.00000000
  eigenvalues    EBANDS =      -352.84928189
  atomic energy  EATOM  =      8345.61350795
  Solvation  Ediel_sol  =         0.00000000
  ---------------------------------------------------
  free energy    TOTEN  =         0.89391871 eV

  energy without entropy =        0.89391871  energy(sigma->0) =        0.89391871


--------------------------------------------------------------------------------------------------------




--------------------------------------- Iteration      1(  14)  ---------------------------------------


    POTLOK:  cpu time    0.2040: real time    0.2131
    SETDIJ:  cpu time    0.0040: real time    0.0052
     EDDAV:  cpu time    0.4440: real time    0.4423
       DOS:  cpu time    0.0000: real time    0.0003
    CHARGE:  cpu time    0.0360: real time    0.0345
    MIXING:  cpu time    0.0080: real time    0.0085
    --------------------------------------------
      LOOP:  cpu time    0.6960: real time    0.7039

 eigenvalue-minimisations  :   232
 total energy-change (2. order) :-0.5253400E+01  (-0.2161355E+00)
 number of electron      65.9999998 magnetization       4.8487391
 augmentation part       42.6557502 magnetization       4.4195092

 Broyden mixing:
  rms(total) = 0.29535E+00    rms(broyden)= 0.29461E+00
  rms(prec ) = 0.32491E+00
  weight for this iteration     100.00

 eigenvalues of (default mixing * dielectric matrix)
  average eigenvalue GAMMA=   0.9619
  2.4419  2.4419  0.8133  0.8133  0.6597  0.6597  0.4677  0.3335  0.0260

 Free energy of the ion-electron system (eV)
  ---------------------------------------------------
  alpha Z        PSCENC =         3.54545109
  Ewald energy   TEWEN  =      3231.49114671
  -Hartree energ DENC   =    -10856.33047771
  -exchange      EXHF   =         0.00000000
  -V(xc)+E(xc)   XCENC  =       269.23168330
  PAW double counting   =      7677.05583961    -8317.00736211
  entropy T*S    EENTRO =         0.00000000
  eigenvalues    EBANDS =      -357.95926991
  atomic energy  EATOM  =      8345.61350795
  Solvation  Ediel_sol  =         0.00000000
  ---------------------------------------------------
  free energy    TOTEN  =        -4.35948108 eV

  energy without entropy =       -4.35948108  energy(sigma->0) =       -4.35948108


--------------------------------------------------------------------------------------------------------




--------------------------------------- Iteration      1(  15)  ---------------------------------------


    POTLOK:  cpu time    0.2040: real time    0.2160
    SETDIJ:  cpu time    0.0040: real time    0.0052
     EDDAV:  cpu time    0.4560: real time    0.4534
       DOS:  cpu time    0.0000: real time    0.0003
    CHARGE:  cpu time    0.0360: real time    0.0350
    MIXING:  cpu time    0.0080: real time    0.0085
    --------------------------------------------
      LOOP:  cpu time    0.7080: real time    0.7184

 eigenvalue-minimisations  :   240
 total energy-change (2. order) : 0.1954918E+00  (-0.1472252E-01)
 number of electron      65.9999998 magnetization       4.5131172
 augmentation part       42.6498478 magnetization       4.1419822

 Broyden mixing:
  rms(total) = 0.27146E+00    rms(broyden)= 0.27142E+00
  rms(prec ) = 0.30121E+00
  weight for this iteration     100.00

 eigenvalues of (default mixing * dielectric matrix)
  average eigenvalue GAMMA=   0.9503
  2.5474  2.5474  0.8335  0.8335  0.6261  0.6261  0.4724  0.3329  0.3417  0.3417

 Free energy of the ion-electron system (eV)
  ---------------------------------------------------
  alpha Z        PSCENC =         3.54545109
  Ewald energy   TEWEN  =      3231.49114671
  -Hartree energ DENC   =    -10857.34762761
  -exchange      EXHF   =         0.00000000
  -V(xc)+E(xc)   XCENC  =       269.53596783
  PAW double counting   =      7679.53047252    -8319.40661702
  entropy T*S    EENTRO =         0.00000000
  eigenvalues    EBANDS =      -357.12629074
  atomic energy  EATOM  =      8345.61350795
  Solvation  Ediel_sol  =         0.00000000
  ---------------------------------------------------
  free energy    TOTEN  =        -4.16398926 eV

  energy without entropy =       -4.16398926  energy(sigma->0) =       -4.16398926


--------------------------------------------------------------------------------------------------------




--------------------------------------- Iteration      1(  16)  ---------------------------------------


    POTLOK:  cpu time    0.2040: real time    0.2133
    SETDIJ:  cpu time    0.0040: real time    0.0052
     EDDAV:  cpu time    0.5200: real time    0.5197
       DOS:  cpu time    0.0000: real time    0.0003
    CHARGE:  cpu time    0.0360: real time    0.0347
    MIXING:  cpu time    0.0080: real time    0.0090
    --------------------------------------------
      LOOP:  cpu time    0.7720: real time    0.7821

 eigenvalue-minimisations  :   288
 total energy-change (2. order) :-0.7328357E+00  (-0.2275180E-01)
 number of electron      65.9999998 magnetization       2.9186505
 augmentation part       42.6446402 magnetization       2.6089266

 Broyden mixing:
  rms(total) = 0.26156E+00    rms(broyden)= 0.26156E+00
  rms(prec ) = 0.28902E+00
  weight for this iteration     100.00

 eigenvalues of (default mixing * dielectric matrix)
  average eigenvalue GAMMA=   1.0880
  3.7590  2.2767  0.8908  0.8908  0.9042  0.6761  0.6761  0.6351  0.3316  0.4637
  0.4637

 Free energy of the ion-electron system (eV)
  ---------------------------------------------------
  alpha Z        PSCENC =         3.54545109
  Ewald energy   TEWEN  =      3231.49114671
  -Hartree energ DENC   =    -10856.45223326
  -exchange      EXHF   =         0.00000000
  -V(xc)+E(xc)   XCENC  =       269.02680148
  PAW double counting   =      7666.05398472    -8306.07062527
  entropy T*S    EENTRO =         0.00000000
  eigenvalues    EBANDS =      -358.10485836
  atomic energy  EATOM  =      8345.61350795
  Solvation  Ediel_sol  =         0.00000000
  ---------------------------------------------------
  free energy    TOTEN  =        -4.89682495 eV

  energy without entropy =       -4.89682495  energy(sigma->0) =       -4.89682495


--------------------------------------------------------------------------------------------------------




--------------------------------------- Iteration      1(  17)  ---------------------------------------


    POTLOK:  cpu time    0.2040: real time    0.2159
    SETDIJ:  cpu time    0.0080: real time    0.0052
     EDDAV:  cpu time    0.5280: real time    0.5305
       DOS:  cpu time    0.0000: real time    0.0003
    CHARGE:  cpu time    0.0360: real time    0.0348
    MIXING:  cpu time    0.0080: real time    0.0093
    --------------------------------------------
      LOOP:  cpu time    0.7840: real time    0.7959

 eigenvalue-minimisations  :   296
 total energy-change (2. order) :-0.2272784E+01  (-0.1310161E+00)
 number of electron      65.9999998 magnetization       2.0509794
 augmentation part       42.5872663 magnetization       1.8881901

 Broyden mixing:
  rms(total) = 0.18411E+00    rms(broyden)= 0.18408E+00
  rms(prec ) = 0.20129E+00
  weight for this iteration     100.00

 eigenvalues of (default mixing * dielectric matrix)
  average eigenvalue GAMMA=   1.1437
  4.7642  1.6714  1.6714  0.9335  0.9335  0.6726  0.6726  0.6622  0.3319  0.4647
  0.4730  0.4730

 Free energy of the ion-electron system (eV)
  ---------------------------------------------------
  alpha Z        PSCENC =         3.54545109
  Ewald energy   TEWEN  =      3231.49114671
  -Hartree energ DENC   =    -10859.06931205
  -exchange      EXHF   =         0.00000000
  -V(xc)+E(xc)   XCENC  =       267.26584909
  PAW double counting   =      7646.55800598    -8287.04525955
  entropy T*S    EENTRO =         0.00000000
  eigenvalues    EBANDS =      -355.52899794
  atomic energy  EATOM  =      8345.61350795
  Solvation  Ediel_sol  =         0.00000000
  ---------------------------------------------------
  free energy    TOTEN  =        -7.16960873 eV

  energy without entropy =       -7.16960873  energy(sigma->0) =       -7.16960873


--------------------------------------------------------------------------------------------------------




--------------------------------------- Iteration      1(  18)  ---------------------------------------


    POTLOK:  cpu time    0.2080: real time    0.2156
    SETDIJ:  cpu time    0.0040: real time    0.0052
     EDDAV:  cpu time    0.5200: real time    0.5197
       DOS:  cpu time    0.0000: real time    0.0003
    CHARGE:  cpu time    0.0360: real time    0.0347
    MIXING:  cpu time    0.0080: real time    0.0096
    --------------------------------------------
      LOOP:  cpu time    0.7760: real time    0.7851

 eigenvalue-minimisations  :   288
 total energy-change (2. order) :-0.9317474E+00  (-0.3440623E-01)
 number of electron      65.9999996 magnetization       1.2989839
 augmentation part       42.5638058 magnetization       1.2022690

 Broyden mixing:
  rms(total) = 0.10069E+00    rms(broyden)= 0.10067E+00
  rms(prec ) = 0.11671E+00
  weight for this iteration     100.00

 eigenvalues of (default mixing * dielectric matrix)
  average eigenvalue GAMMA=   1.2162
  5.7734  1.6401  1.6401  1.0542  1.0542  0.9426  0.6588  0.6588  0.5409  0.5409
  0.3318  0.4878  0.4878

 Free energy of the ion-electron system (eV)
  ---------------------------------------------------
  alpha Z        PSCENC =         3.54545109
  Ewald energy   TEWEN  =      3231.49114671
  -Hartree energ DENC   =    -10860.19820307
  -exchange      EXHF   =         0.00000000
  -V(xc)+E(xc)   XCENC  =       266.49253961
  PAW double counting   =      7643.48797259    -8284.28236450
  entropy T*S    EENTRO =         0.00000000
  eigenvalues    EBANDS =      -354.25140647
  atomic energy  EATOM  =      8345.61350795
  Solvation  Ediel_sol  =         0.00000000
  ---------------------------------------------------
  free energy    TOTEN  =        -8.10135609 eV

  energy without entropy =       -8.10135609  energy(sigma->0) =       -8.10135609


--------------------------------------------------------------------------------------------------------




--------------------------------------- Iteration      1(  19)  ---------------------------------------


    POTLOK:  cpu time    0.2040: real time    0.2202
    SETDIJ:  cpu time    0.0080: real time    0.0050
     EDDAV:  cpu time    0.4960: real time    0.4964
       DOS:  cpu time    0.0000: real time    0.0003
    CHARGE:  cpu time    0.0320: real time    0.0349
    MIXING:  cpu time    0.0120: real time    0.0101
    --------------------------------------------
      LOOP:  cpu time    0.7520: real time    0.7670

 eigenvalue-minimisations  :   272
 total energy-change (2. order) :-0.9197120E+00  (-0.2022040E-01)
 number of electron      65.9999996 magnetization       0.6974538
 augmentation part       42.5873590 magnetization       0.6480729

 Broyden mixing:
  rms(total) = 0.64773E-01    rms(broyden)= 0.64751E-01
  rms(prec ) = 0.75638E-01
  weight for this iteration     100.00

 eigenvalues of (default mixing * dielectric matrix)
  average eigenvalue GAMMA=   1.2838
  6.2342  2.0372  2.0372  1.2838  1.0228  1.0228  0.6710  0.6710  0.3319  0.5319
  0.5319  0.5616  0.5616  0.4746

 Free energy of the ion-electron system (eV)
  ---------------------------------------------------
  alpha Z        PSCENC =         3.54545109
  Ewald energy   TEWEN  =      3231.49114671
  -Hartree energ DENC   =    -10857.59271621
  -exchange      EXHF   =         0.00000000
  -V(xc)+E(xc)   XCENC  =       265.57047801
  PAW double counting   =      7635.55131880    -8276.04536698
  entropy T*S    EENTRO =         0.00000000
  eigenvalues    EBANDS =      -357.15488751
  atomic energy  EATOM  =      8345.61350795
  Solvation  Ediel_sol  =         0.00000000
  ---------------------------------------------------
  free energy    TOTEN  =        -9.02106814 eV

  energy without entropy =       -9.02106814  energy(sigma->0) =       -9.02106814


--------------------------------------------------------------------------------------------------------




--------------------------------------- Iteration      1(  20)  ---------------------------------------


    POTLOK:  cpu time    0.2040: real time    0.2164
    SETDIJ:  cpu time    0.0080: real time    0.0052
     EDDAV:  cpu time    0.4960: real time    0.4972
       DOS:  cpu time    0.0000: real time    0.0004
    CHARGE:  cpu time    0.0360: real time    0.0344
    MIXING:  cpu time    0.0080: real time    0.0107
    --------------------------------------------
      LOOP:  cpu time    0.7520: real time    0.7643

 eigenvalue-minimisations  :   272
 total energy-change (2. order) :-0.8015222E+00  (-0.1176453E-01)
 number of electron      65.9999996 magnetization       0.3695949
 augmentation part       42.5850476 magnetization       0.3445864

 Broyden mixing:
  rms(total) = 0.31593E-01    rms(broyden)= 0.31565E-01
  rms(prec ) = 0.38481E-01
  weight for this iteration     100.00

 eigenvalues of (default mixing * dielectric matrix)
  average eigenvalue GAMMA=   1.3425
  6.8543  2.4922  1.8084  1.8084  0.9582  0.9582  0.8528  0.3319  0.5293  0.5293
  0.7005  0.6258  0.6036  0.6036  0.4813

 Free energy of the ion-electron system (eV)
  ---------------------------------------------------
  alpha Z        PSCENC =         3.54545109
  Ewald energy   TEWEN  =      3231.49114671
  -Hartree energ DENC   =    -10857.01883049
  -exchange      EXHF   =         0.00000000
  -V(xc)+E(xc)   XCENC  =       264.78838606
  PAW double counting   =      7640.89324806    -8281.38778746
  entropy T*S    EENTRO =         0.00000000
  eigenvalues    EBANDS =      -357.74771228
  atomic energy  EATOM  =      8345.61350795
  Solvation  Ediel_sol  =         0.00000000
  ---------------------------------------------------
  free energy    TOTEN  =        -9.82259037 eV

  energy without entropy =       -9.82259037  energy(sigma->0) =       -9.82259037


--------------------------------------------------------------------------------------------------------




--------------------------------------- Iteration      1(  21)  ---------------------------------------


    POTLOK:  cpu time    0.2080: real time    0.2190
    SETDIJ:  cpu time    0.0040: real time    0.0052
     EDDAV:  cpu time    0.5200: real time    0.5200
       DOS:  cpu time    0.0000: real time    0.0003
    CHARGE:  cpu time    0.0360: real time    0.0345
    MIXING:  cpu time    0.0120: real time    0.0111
    --------------------------------------------
      LOOP:  cpu time    0.7800: real time    0.7901

 eigenvalue-minimisations  :   288
 total energy-change (2. order) :-0.5648155E+00  (-0.4388858E-02)
 number of electron      65.9999995 magnetization       0.1518522
 augmentation part       42.5772790 magnetization       0.1328753

 Broyden mixing:
  rms(total) = 0.19799E-01    rms(broyden)= 0.19776E-01
  rms(prec ) = 0.23549E-01
  weight for this iteration     100.00

 eigenvalues of (default mixing * dielectric matrix)
  average eigenvalue GAMMA=   1.3868
  7.4959  2.3777  2.0248  2.0248  1.3389  0.9815  0.9815  0.6700  0.6700  0.6672
  0.5297  0.5297  0.3319  0.5416  0.5416  0.4822

 Free energy of the ion-electron system (eV)
  ---------------------------------------------------
  alpha Z        PSCENC =         3.54545109
  Ewald energy   TEWEN  =      3231.49114671
  -Hartree energ DENC   =    -10855.32662699
  -exchange      EXHF   =         0.00000000
  -V(xc)+E(xc)   XCENC  =       264.22594567
  PAW double counting   =      7636.70314835    -8277.50633348
  entropy T*S    EENTRO =        -0.00000000
  eigenvalues    EBANDS =      -359.13364516
  atomic energy  EATOM  =      8345.61350795
  Solvation  Ediel_sol  =         0.00000000
  ---------------------------------------------------
  free energy    TOTEN  =       -10.38740587 eV

  energy without entropy =      -10.38740587  energy(sigma->0) =      -10.38740587


--------------------------------------------------------------------------------------------------------




--------------------------------------- Iteration      1(  22)  ---------------------------------------


    POTLOK:  cpu time    0.2040: real time    0.2319
    SETDIJ:  cpu time    0.0040: real time    0.0052
     EDDAV:  cpu time    0.4640: real time    0.4646
       DOS:  cpu time    0.0000: real time    0.0003
    CHARGE:  cpu time    0.0360: real time    0.0347
    MIXING:  cpu time    0.0120: real time    0.0114
    --------------------------------------------
      LOOP:  cpu time    0.7200: real time    0.7480

 eigenvalue-minimisations  :   248
 total energy-change (2. order) :-0.1679013E+00  (-0.1144210E-02)
 number of electron      65.9999995 magnetization       0.1060362
 augmentation part       42.5668355 magnetization       0.1016051

 Broyden mixing:
  rms(total) = 0.10275E-01    rms(broyden)= 0.10262E-01
  rms(prec ) = 0.13572E-01
  weight for this iteration     100.00

 eigenvalues of (default mixing * dielectric matrix)
  average eigenvalue GAMMA=   1.3805
  7.7173  2.7860  1.9226  1.9226  1.4405  0.9748  0.9748  0.7339  0.7339  0.6895
  0.6895  0.5260  0.5260  0.3319  0.5113  0.5113  0.4765

 Free energy of the ion-electron system (eV)
  ---------------------------------------------------
  alpha Z        PSCENC =         3.54545109
  Ewald energy   TEWEN  =      3231.49114671
  -Hartree energ DENC   =    -10854.98726290
  -exchange      EXHF   =         0.00000000
  -V(xc)+E(xc)   XCENC  =       264.06314459
  PAW double counting   =      7637.57449778    -8278.47106281
  entropy T*S    EENTRO =         0.00000000
  eigenvalues    EBANDS =      -359.38472954
  atomic energy  EATOM  =      8345.61350795
  Solvation  Ediel_sol  =         0.00000000
  ---------------------------------------------------
  free energy    TOTEN  =       -10.55530712 eV

  energy without entropy =      -10.55530712  energy(sigma->0) =      -10.55530712


--------------------------------------------------------------------------------------------------------




--------------------------------------- Iteration      1(  23)  ---------------------------------------


    POTLOK:  cpu time    0.2040: real time    0.2183
    SETDIJ:  cpu time    0.0040: real time    0.0051
     EDDAV:  cpu time    0.5080: real time    0.5082
       DOS:  cpu time    0.0000: real time    0.0003
    CHARGE:  cpu time    0.0360: real time    0.0345
    MIXING:  cpu time    0.0120: real time    0.0120
    --------------------------------------------
      LOOP:  cpu time    0.7640: real time    0.7784

 eigenvalue-minimisations  :   280
 total energy-change (2. order) :-0.6932351E-01  (-0.2586388E-03)
 number of electron      65.9999995 magnetization       0.0520080
 augmentation part       42.5725528 magnetization       0.0475779

 Broyden mixing:
  rms(total) = 0.67919E-02    rms(broyden)= 0.67877E-02
  rms(prec ) = 0.92960E-02
  weight for this iteration     100.00

 eigenvalues of (default mixing * dielectric matrix)
  average eigenvalue GAMMA=   1.4078
  7.8129  3.1262  1.9360  1.9360  1.4937  1.4937  0.9631  0.9631  0.6879  0.6879
  0.3319  0.5279  0.5279  0.6735  0.6735  0.4765  0.5142  0.5142

 Free energy of the ion-electron system (eV)
  ---------------------------------------------------
  alpha Z        PSCENC =         3.54545109
  Ewald energy   TEWEN  =      3231.49114671
  -Hartree energ DENC   =    -10854.15845087
  -exchange      EXHF   =         0.00000000
  -V(xc)+E(xc)   XCENC  =       263.97701072
  PAW double counting   =      7637.65543011    -8278.54993414
  entropy T*S    EENTRO =         0.00000000
  eigenvalues    EBANDS =      -360.19879220
  atomic energy  EATOM  =      8345.61350795
  Solvation  Ediel_sol  =         0.00000000
  ---------------------------------------------------
  free energy    TOTEN  =       -10.62463063 eV

  energy without entropy =      -10.62463063  energy(sigma->0) =      -10.62463063


--------------------------------------------------------------------------------------------------------




--------------------------------------- Iteration      1(  24)  ---------------------------------------


    POTLOK:  cpu time    0.2040: real time    0.2200
    SETDIJ:  cpu time    0.0080: real time    0.0052
     EDDAV:  cpu time    0.4400: real time    0.4420
       DOS:  cpu time    0.0000: real time    0.0003
    CHARGE:  cpu time    0.0360: real time    0.0346
    MIXING:  cpu time    0.0120: real time    0.0124
    --------------------------------------------
      LOOP:  cpu time    0.7000: real time    0.7144

 eigenvalue-minimisations  :   232
 total energy-change (2. order) :-0.4275733E-01  (-0.2384745E-03)
 number of electron      65.9999995 magnetization       0.0309276
 augmentation part       42.5772880 magnetization       0.0289803

 Broyden mixing:
  rms(total) = 0.38944E-02    rms(broyden)= 0.38919E-02
  rms(prec ) = 0.57102E-02
  weight for this iteration     100.00

 eigenvalues of (default mixing * dielectric matrix)
  average eigenvalue GAMMA=   1.4278
  7.8654  3.7039  1.9644  1.9644  1.9322  1.3218  0.9879  0.9879  0.7745  0.7745
  0.6799  0.6799  0.5275  0.5275  0.3319  0.5114  0.5114  0.4758  0.6052

 Free energy of the ion-electron system (eV)
  ---------------------------------------------------
  alpha Z        PSCENC =         3.54545109
  Ewald energy   TEWEN  =      3231.49114671
  -Hartree energ DENC   =    -10853.59218851
  -exchange      EXHF   =         0.00000000
  -V(xc)+E(xc)   XCENC  =       263.92079093
  PAW double counting   =      7639.20700043    -8280.05108816
  entropy T*S    EENTRO =         0.00000000
  eigenvalues    EBANDS =      -360.80200839
  atomic energy  EATOM  =      8345.61350795
  Solvation  Ediel_sol  =         0.00000000
  ---------------------------------------------------
  free energy    TOTEN  =       -10.66738796 eV

  energy without entropy =      -10.66738796  energy(sigma->0) =      -10.66738796


--------------------------------------------------------------------------------------------------------




--------------------------------------- Iteration      1(  25)  ---------------------------------------


    POTLOK:  cpu time    0.2040: real time    0.2208
    SETDIJ:  cpu time    0.0040: real time    0.0052
     EDDAV:  cpu time    0.4760: real time    0.4745
       DOS:  cpu time    0.0000: real time    0.0003
    CHARGE:  cpu time    0.0360: real time    0.0346
    MIXING:  cpu time    0.0120: real time    0.0129
    --------------------------------------------
      LOOP:  cpu time    0.7320: real time    0.7484

 eigenvalue-minimisations  :   256
 total energy-change (2. order) :-0.1067974E-01  (-0.9226539E-04)
 number of electron      65.9999995 magnetization       0.0129150
 augmentation part       42.5758579 magnetization       0.0103730

 Broyden mixing:
  rms(total) = 0.30376E-02    rms(broyden)= 0.30362E-02
  rms(prec ) = 0.41768E-02
  weight for this iteration     100.00

 eigenvalues of (default mixing * dielectric matrix)
  average eigenvalue GAMMA=   1.4185
  7.9278  3.8716  2.2212  2.2212  1.3731  1.3731  0.9552  0.9552  1.0017  1.0017
  0.6772  0.6772  0.5279  0.5279  0.3319  0.6127  0.6127  0.5127  0.5127  0.4752

 Free energy of the ion-electron system (eV)
  ---------------------------------------------------
  alpha Z        PSCENC =         3.54545109
  Ewald energy   TEWEN  =      3231.49114671
  -Hartree energ DENC   =    -10853.32221046
  -exchange      EXHF   =         0.00000000
  -V(xc)+E(xc)   XCENC  =       263.90956222
  PAW double counting   =      7639.77943860    -8280.66266949
  entropy T*S    EENTRO =         0.00000000
  eigenvalues    EBANDS =      -361.03229431
  atomic energy  EATOM  =      8345.61350795
  Solvation  Ediel_sol  =         0.00000000
  ---------------------------------------------------
  free energy    TOTEN  =       -10.67806770 eV

  energy without entropy =      -10.67806770  energy(sigma->0) =      -10.67806770


--------------------------------------------------------------------------------------------------------




--------------------------------------- Iteration      1(  26)  ---------------------------------------


    POTLOK:  cpu time    0.2040: real time    0.2301
    SETDIJ:  cpu time    0.0040: real time    0.0051
     EDDAV:  cpu time    0.5000: real time    0.4975
       DOS:  cpu time    0.0000: real time    0.0003
    CHARGE:  cpu time    0.0360: real time    0.0347
    MIXING:  cpu time    0.0120: real time    0.0134
    --------------------------------------------
      LOOP:  cpu time    0.7560: real time    0.7810

 eigenvalue-minimisations  :   272
 total energy-change (2. order) :-0.4455818E-03  (-0.3389395E-04)
 number of electron      65.9999995 magnetization       0.0042367
 augmentation part       42.5759871 magnetization       0.0034486

 Broyden mixing:
  rms(total) = 0.22368E-02    rms(broyden)= 0.22362E-02
  rms(prec ) = 0.31942E-02
  weight for this iteration     100.00

 eigenvalues of (default mixing * dielectric matrix)
  average eigenvalue GAMMA=   1.4522
  7.9720  4.1370  2.8115  1.9648  1.9648  1.3209  1.3209  0.9600  0.9600  0.7635
  0.7635  0.3319  0.5281  0.5281  0.7115  0.6674  0.6674  0.6274  0.5106  0.5106
  0.4749

 Free energy of the ion-electron system (eV)
  ---------------------------------------------------
  alpha Z        PSCENC =         3.54545109
  Ewald energy   TEWEN  =      3231.49114671
  -Hartree energ DENC   =    -10853.13030410
  -exchange      EXHF   =         0.00000000
  -V(xc)+E(xc)   XCENC  =       263.90778455
  PAW double counting   =      7639.32105708    -8280.21286673
  entropy T*S    EENTRO =         0.00000000
  eigenvalues    EBANDS =      -361.21428983
  atomic energy  EATOM  =      8345.61350795
  Solvation  Ediel_sol  =         0.00000000
  ---------------------------------------------------
  free energy    TOTEN  =       -10.67851328 eV

  energy without entropy =      -10.67851328  energy(sigma->0) =      -10.67851328


--------------------------------------------------------------------------------------------------------




--------------------------------------- Iteration      1(  27)  ---------------------------------------


    POTLOK:  cpu time    0.2040: real time    0.2197
    SETDIJ:  cpu time    0.0040: real time    0.0052
     EDDAV:  cpu time    0.4440: real time    0.4430
       DOS:  cpu time    0.0000: real time    0.0004
    CHARGE:  cpu time    0.0360: real time    0.0344
    MIXING:  cpu time    0.0120: real time    0.0141
    --------------------------------------------
      LOOP:  cpu time    0.7000: real time    0.7168

 eigenvalue-minimisations  :   232
 total energy-change (2. order) :-0.1567462E-02  (-0.3493036E-04)
 number of electron      65.9999995 magnetization       0.0012044
 augmentation part       42.5735122 magnetization       0.0005519

 Broyden mixing:
  rms(total) = 0.16972E-02    rms(broyden)= 0.16966E-02
  rms(prec ) = 0.22167E-02
  weight for this iteration     100.00

 eigenvalues of (default mixing * dielectric matrix)
  average eigenvalue GAMMA=   1.4554
  8.0251  4.3959  2.8743  1.8816  1.8816  1.8104  1.2546  0.9670  0.9670  0.9426
  0.9426  0.6889  0.6889  0.3319  0.5282  0.5282  0.5996  0.5996  0.6153  0.5098
  0.5098  0.4749

 Free energy of the ion-electron system (eV)
  ---------------------------------------------------
  alpha Z        PSCENC =         3.54545109
  Ewald energy   TEWEN  =      3231.49114671
  -Hartree energ DENC   =    -10853.02798174
  -exchange      EXHF   =         0.00000000
  -V(xc)+E(xc)   XCENC  =       263.90872449
  PAW double counting   =      7639.60424770    -8280.51707245
  entropy T*S    EENTRO =         0.00000000
  eigenvalues    EBANDS =      -361.29810448
  atomic energy  EATOM  =      8345.61350795
  Solvation  Ediel_sol  =         0.00000000
  ---------------------------------------------------
  free energy    TOTEN  =       -10.68008074 eV

  energy without entropy =      -10.68008074  energy(sigma->0) =      -10.68008074


--------------------------------------------------------------------------------------------------------




--------------------------------------- Iteration      1(  28)  ---------------------------------------


    POTLOK:  cpu time    0.2040: real time    0.2180
    SETDIJ:  cpu time    0.0080: real time    0.0051
     EDDAV:  cpu time    0.4960: real time    0.4987
       DOS:  cpu time    0.0000: real time    0.0003
    CHARGE:  cpu time    0.0360: real time    0.0349
    MIXING:  cpu time    0.0160: real time    0.0145
    --------------------------------------------
      LOOP:  cpu time    0.7600: real time    0.7716

 eigenvalue-minimisations  :   272
 total energy-change (2. order) :-0.1293919E-02  (-0.8081546E-05)
 number of electron      65.9999995 magnetization      -0.0020447
 augmentation part       42.5745401 magnetization      -0.0024288

 Broyden mixing:
  rms(total) = 0.12503E-02    rms(broyden)= 0.12500E-02
  rms(prec ) = 0.16074E-02
  weight for this iteration     100.00

 eigenvalues of (default mixing * dielectric matrix)
  average eigenvalue GAMMA=   1.4810
  8.0505  4.5504  3.3542  2.1216  2.1216  1.5888  1.2353  1.2353  0.9521  0.9521
  1.0227  0.3319  0.5281  0.5281  0.6987  0.6987  0.7354  0.6809  0.4750  0.5102
  0.5102  0.5909  0.5909

 Free energy of the ion-electron system (eV)
  ---------------------------------------------------
  alpha Z        PSCENC =         3.54545109
  Ewald energy   TEWEN  =      3231.49114671
  -Hartree energ DENC   =    -10852.85394383
  -exchange      EXHF   =         0.00000000
  -V(xc)+E(xc)   XCENC  =       263.90427588
  PAW double counting   =      7639.32435367    -8280.22544667
  entropy T*S    EENTRO =         0.00000000
  eigenvalues    EBANDS =      -361.48071946
  atomic energy  EATOM  =      8345.61350795
  Solvation  Ediel_sol  =         0.00000000
  ---------------------------------------------------
  free energy    TOTEN  =       -10.68137466 eV

  energy without entropy =      -10.68137466  energy(sigma->0) =      -10.68137466


--------------------------------------------------------------------------------------------------------




--------------------------------------- Iteration      1(  29)  ---------------------------------------


    POTLOK:  cpu time    0.2040: real time    0.2208
    SETDIJ:  cpu time    0.0040: real time    0.0051
     EDDAV:  cpu time    0.4440: real time    0.4422
       DOS:  cpu time    0.0000: real time    0.0003
    CHARGE:  cpu time    0.0360: real time    0.0345
    MIXING:  cpu time    0.0120: real time    0.0153
    --------------------------------------------
      LOOP:  cpu time    0.7000: real time    0.7182

 eigenvalue-minimisations  :   232
 total energy-change (2. order) :-0.2186577E-02  (-0.7611048E-05)
 number of electron      65.9999995 magnetization      -0.0011609
 augmentation part       42.5755300 magnetization      -0.0012797

 Broyden mixing:
  rms(total) = 0.72362E-03    rms(broyden)= 0.72300E-03
  rms(prec ) = 0.94206E-03
  weight for this iteration     100.00

 eigenvalues of (default mixing * dielectric matrix)
  average eigenvalue GAMMA=   1.5149
  8.0557  5.0864  3.6117  2.1017  2.1017  2.1301  1.2582  1.2582  1.0683  1.0683
  0.9494  0.9494  0.3319  0.6983  0.6983  0.5282  0.5282  0.4750  0.5095  0.5095
  0.6278  0.6278  0.5916  0.5916

 Free energy of the ion-electron system (eV)
  ---------------------------------------------------
  alpha Z        PSCENC =         3.54545109
  Ewald energy   TEWEN  =      3231.49114671
  -Hartree energ DENC   =    -10852.75754992
  -exchange      EXHF   =         0.00000000
  -V(xc)+E(xc)   XCENC  =       263.90000157
  PAW double counting   =      7639.38250729    -8280.26783272
  entropy T*S    EENTRO =         0.00000000
  eigenvalues    EBANDS =      -361.59079321
  atomic energy  EATOM  =      8345.61350795
  Solvation  Ediel_sol  =         0.00000000
  ---------------------------------------------------
  free energy    TOTEN  =       -10.68356124 eV

  energy without entropy =      -10.68356124  energy(sigma->0) =      -10.68356124


--------------------------------------------------------------------------------------------------------




--------------------------------------- Iteration      1(  30)  ---------------------------------------


    POTLOK:  cpu time    0.2080: real time    0.2129
    SETDIJ:  cpu time    0.0040: real time    0.0052
     EDDAV:  cpu time    0.3880: real time    0.3870
       DOS:  cpu time    0.0000: real time    0.0003
    CHARGE:  cpu time    0.0320: real time    0.0345
    MIXING:  cpu time    0.0160: real time    0.0159
    --------------------------------------------
      LOOP:  cpu time    0.6480: real time    0.6558

 eigenvalue-minimisations  :   192
 total energy-change (2. order) :-0.8675980E-03  (-0.2597292E-05)
 number of electron      65.9999995 magnetization      -0.0022092
 augmentation part       42.5752690 magnetization      -0.0021995

 Broyden mixing:
  rms(total) = 0.47549E-03    rms(broyden)= 0.47534E-03
  rms(prec ) = 0.61165E-03
  weight for this iteration     100.00

 eigenvalues of (default mixing * dielectric matrix)
  average eigenvalue GAMMA=   1.5334
  8.0752  5.6386  3.7917  2.2394  2.0542  2.0542  1.6105  1.1686  1.1686  1.1521
  0.9463  0.9463  0.3319  0.5281  0.5281  0.7055  0.7055  0.7024  0.7024  0.4749
  0.5102  0.5102  0.5978  0.5978  0.5943

 Free energy of the ion-electron system (eV)
  ---------------------------------------------------
  alpha Z        PSCENC =         3.54545109
  Ewald energy   TEWEN  =      3231.49114671
  -Hartree energ DENC   =    -10852.73020601
  -exchange      EXHF   =         0.00000000
  -V(xc)+E(xc)   XCENC  =       263.89983824
  PAW double counting   =      7639.38814638    -8280.28069104
  entropy T*S    EENTRO =         0.00000000
  eigenvalues    EBANDS =      -361.61162216
  atomic energy  EATOM  =      8345.61350795
  Solvation  Ediel_sol  =         0.00000000
  ---------------------------------------------------
  free energy    TOTEN  =       -10.68442883 eV

  energy without entropy =      -10.68442883  energy(sigma->0) =      -10.68442883


--------------------------------------------------------------------------------------------------------




--------------------------------------- Iteration      1(  31)  ---------------------------------------


    POTLOK:  cpu time    0.2080: real time    0.2149
    SETDIJ:  cpu time    0.0040: real time    0.0052
     EDDAV:  cpu time    0.3680: real time    0.3668
       DOS:  cpu time    0.0000: real time    0.0003
    CHARGE:  cpu time    0.0320: real time    0.0344
    MIXING:  cpu time    0.0200: real time    0.0164
    --------------------------------------------
      LOOP:  cpu time    0.6320: real time    0.6380

 eigenvalue-minimisations  :   176
 total energy-change (2. order) :-0.2799462E-03  (-0.1090185E-05)
 number of electron      65.9999995 magnetization      -0.0008725
 augmentation part       42.5744911 magnetization      -0.0007727

 Broyden mixing:
  rms(total) = 0.37578E-03    rms(broyden)= 0.37539E-03
  rms(prec ) = 0.46698E-03
  weight for this iteration     100.00

 eigenvalues of (default mixing * dielectric matrix)
  average eigenvalue GAMMA=   1.5726
  8.0693  6.6014  3.9354  2.3274  2.2271  2.0078  2.0078  1.2093  1.2093  0.9493
  0.9493  1.0060  1.0060  0.3319  0.5282  0.5282  0.7037  0.7037  0.4750  0.5100
  0.5100  0.6534  0.6534  0.6053  0.6053  0.5742

 Free energy of the ion-electron system (eV)
  ---------------------------------------------------
  alpha Z        PSCENC =         3.54545109
  Ewald energy   TEWEN  =      3231.49114671
  -Hartree energ DENC   =    -10852.74364643
  -exchange      EXHF   =         0.00000000
  -V(xc)+E(xc)   XCENC  =       263.90078973
  PAW double counting   =      7639.46746537    -8280.37003047
  entropy T*S    EENTRO =        -0.00000000
  eigenvalues    EBANDS =      -361.58939273
  atomic energy  EATOM  =      8345.61350795
  Solvation  Ediel_sol  =         0.00000000
  ---------------------------------------------------
  free energy    TOTEN  =       -10.68470878 eV

  energy without entropy =      -10.68470878  energy(sigma->0) =      -10.68470878


--------------------------------------------------------------------------------------------------------




--------------------------------------- Iteration      1(  32)  ---------------------------------------


    POTLOK:  cpu time    0.2040: real time    0.2143
    SETDIJ:  cpu time    0.0040: real time    0.0051
     EDDAV:  cpu time    0.3680: real time    0.3663
       DOS:  cpu time    0.0000: real time    0.0003
    CHARGE:  cpu time    0.0360: real time    0.0348
    MIXING:  cpu time    0.0160: real time    0.0170
    --------------------------------------------
      LOOP:  cpu time    0.6280: real time    0.6377

 eigenvalue-minimisations  :   176
 total energy-change (2. order) :-0.5022534E-04  (-0.5461208E-06)
 number of electron      65.9999995 magnetization      -0.0004927
 augmentation part       42.5745636 magnetization      -0.0004406

 Broyden mixing:
  rms(total) = 0.25045E-03    rms(broyden)= 0.25035E-03
  rms(prec ) = 0.31854E-03
  weight for this iteration     100.00

 eigenvalues of (default mixing * dielectric matrix)
  average eigenvalue GAMMA=   1.5613
  8.1000  6.8728  4.0435  2.3447  2.3447  1.9733  1.9733  1.2076  1.2076  1.1273
  1.1273  0.9483  0.9483  0.7089  0.7089  0.3319  0.5281  0.5281  0.6648  0.6648
  0.6194  0.5881  0.5881  0.5099  0.5099  0.4749  0.5116

 Free energy of the ion-electron system (eV)
  ---------------------------------------------------
  alpha Z        PSCENC =         3.54545109
  Ewald energy   TEWEN  =      3231.49114671
  -Hartree energ DENC   =    -10852.73548821
  -exchange      EXHF   =         0.00000000
  -V(xc)+E(xc)   XCENC  =       263.90060442
  PAW double counting   =      7639.50519204    -8280.40667855
  entropy T*S    EENTRO =        -0.00000000
  eigenvalues    EBANDS =      -361.59849445
  atomic energy  EATOM  =      8345.61350795
  Solvation  Ediel_sol  =         0.00000000
  ---------------------------------------------------
  free energy    TOTEN  =       -10.68475901 eV

  energy without entropy =      -10.68475901  energy(sigma->0) =      -10.68475901


--------------------------------------------------------------------------------------------------------




--------------------------------------- Iteration      1(  33)  ---------------------------------------


    POTLOK:  cpu time    0.2040: real time    0.2166
    SETDIJ:  cpu time    0.0040: real time    0.0051
     EDDAV:  cpu time    0.3680: real time    0.3662
       DOS:  cpu time    0.0000: real time    0.0003
    CHARGE:  cpu time    0.0360: real time    0.0349
    MIXING:  cpu time    0.0160: real time    0.0179
[...]
  free energy    TOTEN  =       -10.68492273 eV

  energy without entropy =      -10.68492273  energy(sigma->0) =      -10.68492273


--------------------------------------------------------------------------------------------------------




 average (electrostatic) potential at core
  the test charge radii are     0.9430
  (the norm of the test charge is              1.0000)
       1 -74.2085       2 -74.3119       3 -74.1675       4 -73.7724       5 -73.7795
       6 -73.3392
 
 
 
 E-fermi :  -4.2552     XC(G=0):  -0.4213     alpha+bet : -0.1281


 spin component 1

 k-point     1 :       0.0000    0.0000    0.0000
  band No.  band energies     occupation 
      1      -7.8595      1.00000
      2      -6.8157      1.00000
      3      -6.5617      1.00000
      4      -6.4600      1.00000
      5      -6.3709      1.00000
      6      -6.2801      1.00000
      7      -6.1568      1.00000
      8      -5.9614      1.00000
      9      -5.9181      1.00000
     10      -5.8050      1.00000
     11      -5.7474      1.00000
     12      -5.6462      1.00000
     13      -5.5659      1.00000
     14      -5.5263      1.00000
     15      -5.4863      1.00000
     16      -5.4194      1.00000
     17      -5.3577      1.00000
     18      -5.3442      1.00000
     19      -5.2950      1.00000
     20      -5.2488      1.00000
     21      -5.2256      1.00000
     22      -5.1801      1.00000
     23      -4.9992      1.00000
     24      -4.9555      1.00000
     25      -4.8533      1.00000
     26      -4.8081      1.00000
     27      -4.7733      1.00000
     28      -4.6521      1.00000
     29      -4.6434      1.00000
     30      -4.6008      1.00000
     31      -4.5281      1.00000
     32      -4.5011      1.00000
     33      -4.2582      1.00000
     34      -3.5563      0.00000
     35      -2.8827      0.00000
     36      -2.3990      0.00000
     37      -1.7548      0.00000
     38      -1.3139      0.00000
     39      -1.1156      0.00000
     40      -0.6819      0.00000
     41      -0.6263      0.00000
     42      -0.2197      0.00000
     43      -0.0515      0.00000
     44       0.1373      0.00000
     45       0.3016      0.00000
     46       0.3438      0.00000
     47       0.3710      0.00000
     48       0.4104      0.00000

 spin component 2

 k-point     1 :       0.0000    0.0000    0.0000
  band No.  band energies     occupation 
      1      -7.8595      1.00000
      2      -6.8157      1.00000
      3      -6.5617      1.00000
      4      -6.4600      1.00000
      5      -6.3708      1.00000
      6      -6.2801      1.00000
      7      -6.1568      1.00000
      8      -5.9614      1.00000
      9      -5.9181      1.00000
     10      -5.8050      1.00000
     11      -5.7474      1.00000
     12      -5.6462      1.00000
     13      -5.5659      1.00000
     14      -5.5263      1.00000
     15      -5.4863      1.00000
     16      -5.4194      1.00000
     17      -5.3577      1.00000
     18      -5.3442      1.00000
     19      -5.2950      1.00000
     20      -5.2488      1.00000
     21      -5.2256      1.00000
     22      -5.1801      1.00000
     23      -4.9992      1.00000
     24      -4.9555      1.00000
     25      -4.8533      1.00000
     26      -4.8081      1.00000
     27      -4.7733      1.00000
     28      -4.6521      1.00000
     29      -4.6434      1.00000
     30      -4.6008      1.00000
     31      -4.5281      1.00000
     32      -4.5011      1.00000
     33      -4.2582      1.00000
     34      -3.5563      0.00000
     35      -2.8827      0.00000
     36      -2.3990      0.00000
     37      -1.7548      0.00000
     38      -1.3139      0.00000
     39      -1.1156      0.00000
     40      -0.6819      0.00000
     41      -0.6262      0.00000
     42      -0.2199      0.00000
     43      -0.0537      0.00000
     44       0.1432      0.00000
     45       0.3015      0.00000
     46       0.3412      0.00000
     47       0.3735      0.00000
     48       0.4078      0.00000


--------------------------------------------------------------------------------------------------------


 soft charge-density along one line, spin component           1
         0         1         2         3         4         5         6         7         8         9
 total charge-density along one line
 
 soft charge-density along one line, spin component           2
         0         1         2         3         4         5         6         7         8         9
 total charge-density along one line
 
 pseudopotential strength for first ion, spin component:           1
-10.492   0.024   0.008   0.041  -0.006   0.980  -0.018  -0.005
  0.024 -10.471   0.019  -0.006  -0.039  -0.018   0.964  -0.015
  0.008   0.019 -10.463   0.014   0.003  -0.005  -0.015   0.958
  0.041  -0.006   0.014 -10.480   0.033  -0.031   0.004  -0.011
 -0.006  -0.039   0.003   0.033 -10.498   0.004   0.030  -0.002
  0.980  -0.018  -0.005  -0.031   0.004   6.339   0.010   0.002
 -0.018   0.964  -0.015   0.004   0.030   0.010   6.349   0.010
 -0.005  -0.015   0.958  -0.011  -0.002   0.002   0.010   6.353
 -0.031   0.004  -0.011   0.970  -0.024   0.020  -0.001   0.006
  0.004   0.030  -0.002  -0.024   0.984  -0.003  -0.019   0.001
  0.001  -0.010  -0.003  -0.007   0.001   0.004  -0.000   0.001
  0.002  -0.018  -0.006  -0.012   0.001   0.007  -0.001   0.001
  0.019  -0.014  -0.007   0.000  -0.012  -0.010   0.006   0.003
  0.000   0.012  -0.017   0.018   0.000   0.001  -0.005   0.008
  0.012   0.000  -0.010  -0.013   0.017  -0.005   0.001   0.005
  0.021  -0.014  -0.007   0.000  -0.012  -0.008   0.004   0.001
  0.000   0.012  -0.018   0.019   0.000   0.001  -0.003   0.005
  0.012   0.000  -0.011  -0.013   0.018  -0.003   0.001   0.004
 pseudopotential strength for first ion, spin component:           2
-10.492   0.024   0.008   0.041  -0.006   0.980  -0.018  -0.005
  0.024 -10.471   0.019  -0.006  -0.039  -0.018   0.964  -0.015
  0.008   0.019 -10.463   0.014   0.003  -0.005  -0.015   0.958
  0.041  -0.006   0.014 -10.480   0.033  -0.031   0.004  -0.011
 -0.006  -0.039   0.003   0.033 -10.498   0.004   0.030  -0.002
  0.980  -0.018  -0.005  -0.031   0.004   6.339   0.010   0.002
 -0.018   0.964  -0.015   0.004   0.030   0.010   6.349   0.010
 -0.005  -0.015   0.958  -0.011  -0.002   0.002   0.010   6.353
 -0.031   0.004  -0.011   0.970  -0.024   0.020  -0.001   0.006
  0.004   0.030  -0.002  -0.024   0.984  -0.003  -0.019   0.001
  0.001  -0.010  -0.003  -0.007   0.001   0.004  -0.000   0.001
  0.002  -0.018  -0.006  -0.012   0.001   0.007  -0.001   0.001
  0.019  -0.014  -0.007   0.000  -0.012  -0.010   0.006   0.003
  0.000   0.012  -0.017   0.018   0.000   0.001  -0.005   0.008
  0.012   0.000  -0.010  -0.013   0.017  -0.005   0.001   0.005
  0.021  -0.014  -0.007   0.000  -0.012  -0.008   0.004   0.001
  0.000   0.012  -0.018   0.019   0.000   0.001  -0.003   0.005
  0.012   0.000  -0.011  -0.013   0.018  -0.003   0.001   0.004
 total augmentation occupancy for first ion, spin component:           1
  1.968  -0.000   0.002   0.011  -0.007  -0.009  -0.004  -0.003  -0.009   0.005  -0.041   0.001  -0.027   0.004  -0.055   0.025
 -0.000   1.971   0.003   0.003  -0.012  -0.004  -0.008  -0.002   0.003   0.008   0.045   0.003   0.059  -0.049   0.001  -0.026
  0.002   0.003   1.975   0.002  -0.001  -0.003  -0.002  -0.014  -0.002  -0.001   0.015  -0.000   0.025   0.035   0.022  -0.013
  0.011   0.003   0.002   1.968   0.013  -0.009   0.003  -0.002  -0.005  -0.011   0.069  -0.001   0.000  -0.047   0.069   0.001
 -0.007  -0.012  -0.001   0.013   1.960   0.005   0.008  -0.001  -0.011  -0.004  -0.031   0.002   0.047   0.002  -0.064  -0.024
 -0.009  -0.004  -0.003  -0.009   0.005   0.004  -0.002  -0.001  -0.003   0.001   0.025  -0.002  -0.007   0.004  -0.010   0.000
 -0.004  -0.008  -0.002   0.003   0.008  -0.002   0.006  -0.001   0.002   0.002  -0.055   0.004   0.014  -0.012   0.004  -0.001
 -0.003  -0.002  -0.014  -0.002  -0.001  -0.001  -0.001   0.003  -0.000  -0.000  -0.012   0.000   0.003   0.005   0.003  -0.000
 -0.009   0.003  -0.002  -0.005  -0.011  -0.003   0.002  -0.000   0.006  -0.002  -0.049   0.003   0.004  -0.010   0.013  -0.001
  0.005   0.008  -0.001  -0.011  -0.004   0.001   0.002  -0.000  -0.002   0.005   0.008   0.000   0.007  -0.000  -0.009  -0.000
 -0.041   0.045   0.015   0.069  -0.031   0.025  -0.055  -0.012  -0.049   0.008   1.551  -0.067  -0.158   0.165  -0.158   0.018
  0.001   0.003  -0.000  -0.001   0.002  -0.002   0.004   0.000   0.003   0.000  -0.067   0.005   0.013  -0.013   0.008  -0.001
 -0.027   0.059   0.025   0.000   0.047  -0.007   0.014   0.003   0.004   0.007  -0.158   0.013   0.051  -0.028   0.010  -0.005
  0.004  -0.049   0.035  -0.047   0.002   0.004  -0.012   0.005  -0.010  -0.000   0.165  -0.013  -0.028   0.046  -0.019   0.003
 -0.055   0.001   0.022   0.069  -0.064  -0.010   0.004   0.003   0.013  -0.009  -0.158   0.008   0.010  -0.019   0.053  -0.002
  0.025  -0.026  -0.013   0.001  -0.024   0.000  -0.001  -0.000  -0.001  -0.000   0.018  -0.001  -0.005   0.003  -0.002   0.001
  0.000   0.024  -0.029   0.026   0.000  -0.000   0.001   0.000   0.001  -0.000  -0.018   0.001   0.003  -0.005   0.003  -0.000
  0.023   0.000  -0.015  -0.025   0.026   0.001  -0.001  -0.000  -0.001   0.001   0.016  -0.001  -0.002   0.002  -0.006   0.000
 total augmentation occupancy for first ion, spin component:           2
  0.000  -0.000   0.000  -0.000   0.000  -0.000   0.000   0.000  -0.000   0.000   0.000  -0.000  -0.000   0.000   0.000   0.000
 -0.000   0.000  -0.000  -0.000   0.000  -0.000  -0.000  -0.000  -0.000   0.000  -0.000  -0.000   0.000   0.000   0.000  -0.000
  0.000  -0.000   0.000  -0.000   0.000   0.000  -0.000  -0.000   0.000   0.000   0.000   0.000   0.000  -0.000   0.000  -0.000
 -0.000  -0.000  -0.000   0.000  -0.000  -0.000  -0.000  -0.000  -0.000  -0.000  -0.000   0.000  -0.000  -0.000   0.000   0.000
  0.000   0.000   0.000  -0.000   0.000   0.000   0.000   0.000  -0.000  -0.000  -0.000  -0.000   0.000  -0.000  -0.000  -0.000
 -0.000  -0.000   0.000  -0.000   0.000  -0.000  -0.000  -0.000   0.000  -0.000   0.000  -0.000  -0.000   0.000  -0.000   0.000
  0.000  -0.000  -0.000  -0.000   0.000  -0.000   0.000   0.000   0.000   0.000  -0.000   0.000   0.000  -0.000   0.000  -0.000
  0.000  -0.000  -0.000  -0.000   0.000  -0.000   0.000   0.000  -0.000  -0.000  -0.000   0.000  -0.000  -0.000  -0.000   0.000
 -0.000  -0.000   0.000  -0.000  -0.000   0.000   0.000  -0.000   0.000   0.000  -0.000  -0.000   0.000  -0.000   0.000   0.000
  0.000   0.000   0.000  -0.000  -0.000  -0.000   0.000  -0.000   0.000   0.000  -0.000   0.000   0.000  -0.000   0.000  -0.000
  0.000  -0.000   0.000  -0.000  -0.000   0.000  -0.000  -0.000  -0.000  -0.000   0.000   0.000   0.000   0.000  -0.000   0.000
 -0.000  -0.000   0.000   0.000  -0.000  -0.000   0.000   0.000  -0.000   0.000   0.000  -0.000   0.000  -0.000   0.000  -0.000
 -0.000   0.000   0.000  -0.000   0.000  -0.000   0.000  -0.000   0.000   0.000   0.000   0.000   0.000  -0.000   0.000  -0.000
  0.000   0.000  -0.000  -0.000  -0.000   0.000  -0.000  -0.000  -0.000  -0.000   0.000  -0.000  -0.000   0.000  -0.000   0.000
  0.000   0.000   0.000   0.000  -0.000  -0.000   0.000  -0.000   0.000   0.000  -0.000   0.000   0.000  -0.000   0.000   0.000
  0.000  -0.000  -0.000   0.000  -0.000   0.000  -0.000   0.000   0.000  -0.000   0.000  -0.000  -0.000   0.000   0.000   0.000
 -0.000  -0.000   0.000   0.000   0.000  -0.000   0.000   0.000   0.000   0.000  -0.000   0.000   0.000   0.000   0.000  -0.000
 -0.000  -0.000  -0.000  -0.000   0.000   0.000  -0.000   0.000  -0.000   0.000   0.000  -0.000  -0.000   0.000  -0.000  -0.000


------------------------ aborting loop because EDIFF is reached ----------------------------------------


 


 total charge     
 
# of ion       s       p       d       tot
------------------------------------------
    1        0.466   0.074   9.329   9.869
    2        0.417   0.098   9.359   9.873
    3        0.479   0.164   9.255   9.898
    4        0.505   0.109   9.275   9.890
    5        0.457   0.112   9.322   9.891
    6        0.462   0.045   9.349   9.856
--------------------------------------------------
tot          2.787   0.602  55.889  59.277
 


 magnetization (x)
 
# of ion       s       p       d       tot
------------------------------------------
    1        0.000   0.000   0.000   0.000
    2       -0.000  -0.000   0.000   0.000
    3       -0.000  -0.000   0.000   0.000
    4       -0.000  -0.000   0.000   0.000
    5       -0.000  -0.000   0.000   0.000
    6        0.000   0.000   0.000   0.000
--------------------------------------------------
tot         -0.000  -0.000   0.000   0.000
 
    CHARGE:  cpu time    0.0360: real time    0.0350
    FORLOC:  cpu time    0.0040: real time    0.0039
    FORNL :  cpu time    0.0720: real time    0.0721
    STRESS:  cpu time    0.1160: real time    0.1183
    FORCOR:  cpu time    0.1960: real time    0.1931
    FORHAR:  cpu time    0.0240: real time    0.0237
    MIXING:  cpu time    0.0200: real time    0.0210
    OFIELD:  cpu time    0.0000: real time    0.0001

  FORCE on cell =-STRESS in cart. coord.  units (eV):
  Direction    XX          YY          ZZ          XY          YZ          ZX
  --------------------------------------------------------------------------------------
  Alpha Z     3.54545     3.54545     3.54545
  Ewald     -10.20497  2816.39522   425.29891   -94.35506 -2198.85237    81.82403
  Hartree  2593.07459  5209.42668  3050.22388   -89.98105 -1870.70357    72.54603
  E(xc)    -384.94077  -384.39864  -384.95868    -0.00099    -0.86120     0.03135
  Local   -3148.66226 -8593.71970 -4045.54998   184.51914  4057.99804  -154.11394
  n-local  -155.94905  -153.75951  -155.38349     0.21628     0.56586     0.22841
  augment   557.86887   557.33333   559.53426    -0.08956     6.14804    -0.22800
  Kinetic   543.67977   543.41217   545.73446    -0.37156     5.83379    -0.24291
  Fock        0.00000     0.00000     0.00000     0.00000     0.00000     0.00000
  -------------------------------------------------------------------------------------
  Total      -1.58837    -1.76500    -1.55518    -0.06279     0.12859     0.04497
  in kB      -0.34270    -0.38081    -0.33554    -0.01355     0.02774     0.00970
  external pressure =       -0.35 kB  Pullay stress =        0.00 kB


 VOLUME and BASIS-vectors are now :
 -----------------------------------------------------------------------------
  energy-cutoff  :      295.45
  volume of cell :     7425.80
      direct lattice vectors                 reciprocal lattice vectors
    19.509572000  0.000000000  0.000000000     0.051256891  0.000000000  0.000000000
     0.000000000 19.509572000  0.000000000     0.000000000  0.051256891  0.000000000
     0.000000000  0.000000000 19.509572000     0.000000000  0.000000000  0.051256891

  length of vectors
    19.509572000 19.509572000 19.509572000     0.051256891  0.051256891  0.051256891


 FORCES acting on ions
    electron-ion (+dipol)            ewald-force                    non-local-force                 convergence-correction
 -----------------------------------------------------------------------------------------------
   -.248E+03 -.465E+03 0.419E+03   0.240E+03 0.458E+03 -.412E+03   0.788E+01 0.717E+01 -.754E+01   -.355E-03 0.219E-03 -.424E-04
   0.616E+03 -.213E+03 -.849E+02   -.603E+03 0.214E+03 0.792E+02   -.136E+02 -.674E+00 0.576E+01   0.274E-03 0.986E-04 0.364E-04
   -.299E+03 0.351E+02 0.118E+03   0.295E+03 -.366E+02 -.113E+03   0.390E+01 0.156E+01 -.480E+01   -.109E-03 -.530E-03 0.585E-03
   -.298E+03 -.918E+01 -.269E+03   0.293E+03 0.115E+02 0.260E+03   0.497E+01 -.239E+01 0.835E+01   -.232E-03 0.191E-03 -.439E-03
   0.351E+03 0.266E+03 0.200E+03   -.343E+03 -.266E+03 -.192E+03   -.788E+01 0.401E+00 -.856E+01   0.124E-03 0.130E-03 -.142E-03
   -.123E+03 0.386E+03 -.386E+03   0.118E+03 -.380E+03 0.377E+03   0.500E+01 -.604E+01 0.913E+01   0.122E-03 -.129E-03 0.164E-03
 -----------------------------------------------------------------------------------------------
   -.333E+00 -.288E-01 -.233E+01   0.142E-13 0.568E-13 0.568E-13   0.277E+00 0.179E-01 0.233E+01   -.176E-03 -.200E-04 0.162E-03
 
 
 POSITION                                       TOTAL-FORCE (eV/Angst)
 -----------------------------------------------------------------------------------
     10.12296     12.90777      7.61514         0.004424     -0.048213      0.017391
      8.36957     12.12996      8.81535         0.016980     -0.001195      0.009964
     10.31389     10.86406      8.96984        -0.042032      0.048963      0.020776
     10.49380      9.19947     10.51494         0.018973     -0.055447      0.004274
      9.18840      7.31238     10.45964         0.028484      0.015478     -0.025793
     10.04010      6.11508     12.15380        -0.026828      0.040415     -0.026612
 -----------------------------------------------------------------------------------
    total drift:                               -0.056334     -0.010932      0.003818


--------------------------------------------------------------------------------------------------------



  FREE ENERGIE OF THE ION-ELECTRON SYSTEM (eV)
  ---------------------------------------------------
  free  energy   TOTEN  =       -10.68492273 eV

  energy  without entropy=      -10.68492273  energy(sigma->0) =      -10.68492273
 


--------------------------------------------------------------------------------------------------------


    POTLOK:  cpu time    0.2080: real time    0.2085


--------------------------------------------------------------------------------------------------------




--------------------------------------------------------------------------------------------------------


  
 reached required accuracy - stopping structural energy minimisation
     LOOP+:  cpu time   27.2080: real time   27.8526
    4ORBIT:  cpu time    0.0000: real time    0.0000
 


 total charge     
 
# of ion       s       p       d       tot
------------------------------------------
    1        0.466   0.074   9.329   9.869
    2        0.417   0.098   9.359   9.873
    3        0.479   0.164   9.255   9.898
    4        0.505   0.109   9.275   9.890
    5        0.457   0.112   9.322   9.891
    6        0.462   0.045   9.349   9.856
--------------------------------------------------
tot          2.787   0.602  55.889  59.277
 


 magnetization (x)
 
# of ion       s       p       d       tot
------------------------------------------
    1        0.000   0.000   0.000   0.000
    2       -0.000  -0.000   0.000   0.000
    3       -0.000  -0.000   0.000   0.000
    4       -0.000  -0.000   0.000   0.000
    5       -0.000  -0.000   0.000   0.000
    6        0.000   0.000   0.000   0.000
--------------------------------------------------
tot         -0.000  -0.000   0.000   0.000
 

 total amount of memory used by VASP MPI-rank0    50204. kBytes
=======================================================================

   base      :      30000. kBytes
   nonl-proj :        936. kBytes
   fftplans  :       5011. kBytes
   grid      :      12741. kBytes
   one-center:         15. kBytes
   wavefun   :       1501. kBytes
 
  
  
 General timing and accounting informations for this job:
 ========================================================
  
                  Total CPU time used (sec):       29.216
                            User time (sec):       28.516
                          System time (sec):        0.700
                         Elapsed time (sec):       29.960
  
                   Maximum memory used (kb):       36712.
                   Average memory used (kb):           0.
  
                          Minor page faults:        11871
                          Major page faults:           31
                 Voluntary context switches:          615
