 vasp.5.4.1 05Feb16 (build Apr 11 2020 03:28:46) gamma-only                     
  
 executed on           IFC91_ompi date 2022.05.25  23:30:12
 running on   24 total cores
 distrk:  each k-point on   24 cores,    1 groups
 distr:  one band on NCORES_PER_BAND=   6 cores,    4 groups


--------------------------------------------------------------------------------------------------------


 INCAR:
 POTCAR:    PAW_PBE Cu 22Jun2005                  
 POTCAR:    PAW_PBE Cu 22Jun2005                  
   VRHFIN =Cu: d10 p1                                                           
   LEXCH  = PE                                                                  
   EATOM  =  1390.9808 eV,  102.2342 Ry                                         
                                                                                
   TITEL  = PAW_PBE Cu 22Jun2005                                                
   LULTRA =        F    use ultrasoft PP ?                                      
   IUNSCR =        1    unscreen: 0-lin 1-nonlin 2-no                           
   RPACOR =    2.000    partial core radius                                     
   POMASS =   63.546; ZVAL   =   11.000    mass and valenz                      
   RCORE  =    2.300    outmost cutoff radius                                   
   RWIGS  =    2.200; RWIGS  =    1.164    wigner-seitz radius (au A)           
   ENMAX  =  295.446; ENMIN  =  221.585 eV                                      
   ICORE  =        3    local potential                                         
   LCOR   =        T    correct aug charges                                     
   LPAW   =        T    paw PP                                                  
   EAUG   =  586.980                                                            
   DEXC   =    0.000                                                            
   RMAX   =    2.344    core radius for proj-oper                               
   RAUG   =    1.300    factor for augmentation sphere                          
   RDEP   =    2.302    radius for radial grids                                 
   RDEPT  =    1.771    core radius for aug-charge                              
                                                                                
   Atomic configuration                                                         
    9 entries                                                                   
     n  l   j            E        occ.                                          
     1  0  0.50     -8850.2468   2.0000                                         
     2  0  0.50     -1062.3498   2.0000                                         
     2  1  1.50      -916.8226   6.0000                                         
     3  0  0.50      -114.6929   2.0000                                         
     3  1  1.50       -72.1325   6.0000                                         
     3  2  2.50        -5.0394  10.0000                                         
     4  0  0.50        -4.6097   1.0000                                         
     4  1  0.50        -4.0817   0.0000                                         
     4  3  2.50        -1.3606   0.0000                                         
   Description                                                                  
     l       E           TYP  RCUT    TYP  RCUT                                 
     2     -5.0393973     23  2.200                                             
     2     10.8846608     23  2.200                                             
     0     -4.6097109     23  2.200                                             
     0      8.2520465     23  2.200                                             
     1     -2.7211652     23  2.200                                             
     1     21.7055443     23  2.200                                             
     3      2.7211652     23  2.300                                             
  local pseudopotential read in
  partial core-charges read in
  partial kinetic energy density read in
  atomic valenz-charges read in
  non local Contribution for L=           2  read in
    real space projection operators read in
  non local Contribution for L=           2  read in
    real space projection operators read in
  non local Contribution for L=           0  read in
    real space projection operators read in
  non local Contribution for L=           0  read in
    real space projection operators read in
  non local Contribution for L=           1  read in
    real space projection operators read in
  non local Contribution for L=           1  read in
    real space projection operators read in
    PAW grid and wavefunctions read in
 
   number of l-projection  operators is LMAX  =           6
   number of lm-projection operators is LMMAX =          18
 
  PAW_PBE Cu 22Jun2005                  :
 energy of atom  1       EATOM=-1390.9808
 kinetic energy error for atom=    0.0452 (will be added to EATOM!!)
 
 
 POSCAR: unknown system                          
  positions in direct lattice
  velocities in cartesian coordinates
 exchange correlation table for  LEXCH =        8
   RHO(1)=    0.500       N(1)  =     2000
   RHO(2)=  100.500       N(2)  =     4000
 


--------------------------------------------------------------------------------------------------------


 ion  position               nearest neighbor table
   1  0.503  0.420  0.574-   2 2.40   4 2.40   6 2.42
   2  0.406  0.434  0.492-   6 2.32   5 2.37   1 2.40
   3  0.585  0.602  0.482-   6 2.31   4 2.38
   4  0.594  0.508  0.565-   6 2.32   3 2.38   1 2.40
   5  0.411  0.522  0.402-   6 2.32   2 2.37
   6  0.501  0.513  0.485-   3 2.31   4 2.32   5 2.32   2 2.32   1 2.42
 
  LATTYP: Found a simple cubic cell.
 ALAT       =    18.8699760000
  
  Lattice vectors:
  
 A1 = (  18.8699760000,   0.0000000000,   0.0000000000)
 A2 = (   0.0000000000,  18.8699760000,   0.0000000000)
 A3 = (   0.0000000000,   0.0000000000,  18.8699760000)


Analysis of symmetry for initial positions (statically):
=====================================================================
 Subroutine PRICEL returns:
 Original cell was already a primitive cell.
 

 Routine SETGRP: Setting up the symmetry group for a 
 simple cubic supercell.


 Subroutine GETGRP returns: Found  1 space group operations
 (whereof  1 operations were pure point group operations)
 out of a pool of 48 trial point group operations.


The static configuration has the point symmetry C_1 .


Analysis of symmetry for dynamics (positions and initial velocities):
=====================================================================
 Subroutine PRICEL returns:
 Original cell was already a primitive cell.
 

 Routine SETGRP: Setting up the symmetry group for a 
 simple cubic supercell.


 Subroutine GETGRP returns: Found  1 space group operations
 (whereof  1 operations were pure point group operations)
 out of a pool of 48 trial point group operations.


The dynamic configuration has the point symmetry C_1 .


Analysis of structural, dynamic, and magnetic symmetry:
=====================================================================
 Subroutine PRICEL returns:
 Original cell was already a primitive cell.
 

 Routine SETGRP: Setting up the symmetry group for a 
 simple cubic supercell.


 Subroutine GETGRP returns: Found  1 space group operations
 (whereof  1 operations were pure point group operations)
 out of a pool of 48 trial point group operations.


The magnetic configuration has the point symmetry C_1 .


 Subroutine INISYM returns: Found  1 space group operations
 (whereof  1 operations are pure point group operations),
 and found     1 'primitive' translations

 
 
 KPOINTS: Gamma-point only                        
  k-points in reciprocal lattice
Space group operators:
 irot       det(A)        alpha          n_x          n_y          n_z        tau_x        tau_y        tau_z
    1     1.000000     0.000000     1.000000     0.000000     0.000000     0.000000     0.000000     0.000000


--------------------------------------------------------------------------------------------------------




 Dimension of arrays:
   k-points           NKPTS =      1   k-points in BZ     NKDIM =      1   number of bands    NBANDS=     48
   number of dos      NEDOS =    301   number of ions     NIONS =      6
   non local maximal  LDIM  =      6   non local SUM 2l+1 LMDIM =     18
   total plane-waves  NPLWV = 512000
   max r-space proj   IRMAX =      1   max aug-charges    IRDMAX=   2406
   dimension x,y,z NGX =    80 NGY =   80 NGZ =   80
   dimension x,y,z NGXF=   160 NGYF=  160 NGZF=  160
   support grid    NGXF=   160 NGYF=  160 NGZF=  160
   ions per type =               6
 NGX,Y,Z   is equivalent  to a cutoff of   7.05,  7.05,  7.05 a.u.
 NGXF,Y,Z  is equivalent  to a cutoff of  14.10, 14.10, 14.10 a.u.


 I would recommend the setting:
   dimension x,y,z NGX =    79 NGY =   79 NGZ =   79
 SYSTEM =  unknown system                          
 POSCAR =  unknown system                          

 Startparameter for this run:
   NWRITE =      2    write-flag & timer
   PREC   = normal    normal or accurate (medium, high low for compatibility)
   ISTART =      0    job   : 0-new  1-cont  2-samecut
   ICHARG =      2    charge: 1-file 2-atom 10-const
   ISPIN  =      2    spin polarized calculation?
   LNONCOLLINEAR =      F non collinear calculations
   LSORBIT =      F    spin-orbit coupling
   INIWAV =      1    electr: 0-lowe 1-rand  2-diag
   LASPH  =      F    aspherical Exc in radial PAW
   METAGGA=      F    non-selfconsistent MetaGGA calc.

 Electronic Relaxation 1
   ENCUT  =  295.4 eV  21.71 Ry    4.66 a.u.  26.45 26.45 26.45*2*pi/ulx,y,z
   ENINI  =  295.4     initial cutoff
   ENAUG  =  587.0 eV  augmentation charge cutoff
   NELM   =     60;   NELMIN=  2; NELMDL=  0     # of ELM steps 
   EDIFF  = 0.1E-05   stopping-criterion for ELM
   LREAL  =      F    real-space projection
   NLSPLINE    = F    spline interpolate recip. space projectors
   LCOMPAT=      F    compatible to vasp.4.4
   GGA_COMPAT  = T    GGA compatible to vasp.4.4-vasp.4.6
   LMAXPAW     = -100 max onsite density
   LMAXMIX     =    2 max onsite mixed and CHGCAR
   VOSKOWN=      0    Vosko Wilk Nusair interpolation
   ROPT   =    0.00000
 Ionic relaxation
   EDIFFG = -.3E-01   stopping-criterion for IOM
   NSW    =   1000    number of steps for IOM
   NBLOCK =      1;   KBLOCK =   1000    inner block; outer block 
   IBRION =      2    ionic relax: 0-MD 1-quasi-New 2-CG
   NFREE  =      1    steps in history (QN), initial steepest desc. (CG)
   ISIF   =      2    stress and relaxation
   IWAVPR =     11    prediction:  0-non 1-charg 2-wave 3-comb
   ISYM   =      2    0-nonsym 1-usesym 2-fastsym
   LCORR  =      T    Harris-Foulkes like correction to forces

   POTIM  = 0.5000    time-step for ionic-motion
   TEIN   =    0.0    initial temperature
   TEBEG  =    0.0;   TEEND  =   0.0 temperature during run
   SMASS  =  -3.00    Nose mass-parameter (am)
   estimated Nose-frequenzy (Omega)   =  0.10E-29 period in steps =****** mass=  -0.814E-26a.u.
   SCALEE = 1.0000    scale energy and forces
   NPACO  =    256;   APACO  = 16.0  distance and # of slots for P.C.
   PSTRESS=    0.0 pullay stress

  Mass of Ions in am
   POMASS =  63.55
  Ionic Valenz
   ZVAL   =  11.00
  Atomic Wigner-Seitz radii
   RWIGS  =  -1.00
  virtual crystal weights 
   VCA    =   1.00
   NELECT =      66.0000    total number of electrons
   NUPDOWN=      -1.0000    fix difference up-down

 DOS related values:
   EMIN   =  10.00;   EMAX   =-10.00  energy-range for DOS
   EFERMI =   0.00
   ISMEAR =     0;   SIGMA  =   0.00  broadening in eV -4-tet -1-fermi 0-gaus

 Electronic relaxation 2 (details)
   IALGO  =     38    algorithm
   LDIAG  =      T    sub-space diagonalisation (order eigenvalues)
   LSUBROT=      F    optimize rotation matrix (better conditioning)
   TURBO    =      0    0=normal 1=particle mesh
   IRESTART =      0    0=no restart 2=restart with 2 vectors
   NREBOOT  =      0    no. of reboots
   NMIN     =      0    reboot dimension
   EREF     =   0.00    reference energy to select bands
   IMIX   =      4    mixing-type and parameters
     AMIX     =   0.40;   BMIX     =  1.00
     AMIX_MAG =   1.60;   BMIX_MAG =  1.00
     AMIN     =   0.10
     WC   =   100.;   INIMIX=   1;  MIXPRE=   1;  MAXMIX= -45

 Intra band minimization:
   WEIMIN = 0.0010     energy-eigenvalue tresh-hold
   EBREAK =  0.52E-08  absolut break condition
   DEPER  =   0.30     relativ break condition  

   TIME   =   0.40     timestep for ELM

  volume/ion in A,a.u.               =    1119.86      7557.17
  Fermi-wavevector in a.u.,A,eV,Ry     =   0.350605  0.662547  1.672481  0.122924
  Thomas-Fermi vector in A             =   1.262592
 
 Write flags
   LWAVE  =      F    write WAVECAR
   LCHARG =      F    write CHGCAR
   LVTOT  =      F    write LOCPOT, total local potential
   LVHAR  =      F    write LOCPOT, Hartree potential only
   LELF   =      F    write electronic localiz. function (ELF)
   LORBIT =     11    0 simple, 1 ext, 2 COOP (PROOUT)


 Dipole corrections
   LMONO  =      F    monopole corrections only (constant potential shift)
   LDIPOL =      F    correct potential (dipole corrections)
   IDIPOL =      0    1-x, 2-y, 3-z, 4-all directions 
   EPSILON=  1.0000000 bulk dielectric constant

 Exchange correlation treatment:
   GGA     =    PE    GGA type
   LEXCH   =     8    internal setting for exchange type
   VOSKOWN=      0    Vosko Wilk Nusair interpolation
   LHFCALC =     F    Hartree Fock is set to
   LHFONE  =     F    Hartree Fock one center treatment
   AEXX    =    0.0000 exact exchange contribution

 Linear response parameters
   LEPSILON=     F    determine dielectric tensor
   LRPA    =     F    only Hartree local field effects (RPA)
   LNABLA  =     F    use nabla operator in PAW spheres
   LVEL    =     F    velocity operator in full k-point grid
   LINTERFAST=   F  fast interpolation
   KINTER  =     0    interpolate to denser k-point grid
   CSHIFT  =0.1000    complex shift for real part using Kramers Kronig
   OMEGAMAX=  -1.0    maximum frequency
   DEG_THRESHOLD= 0.2000000E-02 threshold for treating states as degnerate
   RTIME   =    0.100 relaxation time in fs

 Orbital magnetization related:
   ORBITALMAG=     F  switch on orbital magnetization
   LCHIMAG   =     F  perturbation theory with respect to B field
   DQ        =  0.001000  dq finite difference perturbation B field



--------------------------------------------------------------------------------------------------------


 conjugate gradient relaxation of ions
 charge density and potential will be updated during run
 spin polarized calculation
 Variant of blocked Davidson
 Davidson routine will perform the subspace rotation
 perform sub-space diagonalisation
    after iterative eigenvector-optimisation
 modified Broyden-mixing scheme, WC =      100.0
 initial mixing is a Kerker type mixing with AMIX =  0.4000 and BMIX =      1.0000
 Hartree-type preconditioning will be used
 using additional bands           15
 reciprocal scheme for non local part
 use partial core corrections
 calculate Harris-corrections to forces 
   (improved forces if not selfconsistent)
 use gradient corrections 
 use of overlap-Matrix (Vanderbilt PP)
 Gauss-broadening in eV      SIGMA  =   0.00


--------------------------------------------------------------------------------------------------------


  energy-cutoff  :      295.45
  volume of cell :     6719.15
      direct lattice vectors                 reciprocal lattice vectors
    18.869976000  0.000000000  0.000000000     0.052994238  0.000000000  0.000000000
     0.000000000 18.869976000  0.000000000     0.000000000  0.052994238  0.000000000
     0.000000000  0.000000000 18.869976000     0.000000000  0.000000000  0.052994238

  length of vectors
    18.869976000 18.869976000 18.869976000     0.052994238  0.052994238  0.052994238


 
 k-points in units of 2pi/SCALE and weight: Gamma-point only                        
   0.00000000  0.00000000  0.00000000       1.000
 
 k-points in reciprocal lattice and weights: Gamma-point only                        
   0.00000000  0.00000000  0.00000000       1.000
 
 position of ions in fractional coordinates (direct lattice) 
   0.50292059  0.41968267  0.57353412
   0.40638566  0.43436579  0.49174326
   0.58490558  0.60243084  0.48216372
   0.59428125  0.50808135  0.56501516
   0.41057980  0.52237989  0.40225105
   0.50092712  0.51305945  0.48529271
 
 position of ions in cartesian coordinates  (Angst):
   9.49009946  7.91940191 10.82257508
   7.66848765  8.19647203  9.27918351
  11.03715426 11.36785549  9.09841782
  11.21407292  9.58748288 10.66182251
   7.74763097  9.85729599  7.59046766
   9.45248273  9.68141951  9.15746179
 


--------------------------------------------------------------------------------------------------------


 use parallel FFT for wavefunctions z direction half grid
 k-point  1 :   0.0000 0.0000 0.0000  plane waves:   38803

 maximum and minimum number of plane-waves per node :      6474     6459

 maximum number of plane-waves:     38803
 maximum index in each direction: 
   IXMAX=   26   IYMAX=   26   IZMAX=   26
   IXMIN=  -26   IYMIN=  -26   IZMIN=    0

 WARNING: aliasing errors must be expected set NGX to 106 to avoid them
 WARNING: aliasing errors must be expected set NGY to 106 to avoid them
 WARNING: aliasing errors must be expected set NGZ to 106 to avoid them
 aliasing errors are usually negligible using standard VASP settings
 and one can safely disregard these warnings

 parallel 3D FFT for wavefunctions:
    minimum data exchange during FFTs selected (reduces bandwidth)
 parallel 3D FFT for charge:
    minimum data exchange during FFTs selected (reduces bandwidth)


 total amount of memory used by VASP on root node    62251. kBytes
========================================================================

   base      :      30000. kBytes
   nonl-proj :       1550. kBytes
   fftplans  :       7971. kBytes
   grid      :      20231. kBytes
   one-center:         15. kBytes
   wavefun   :       2484. kBytes
 
     INWAV:  cpu time    0.0000: real time    0.0000
 Broyden mixing: mesh for mixing (old mesh)
   NGX = 53   NGY = 53   NGZ = 53
  (NGX  =160   NGY  =160   NGZ  =160)
  gives a total of 148877 points

 initial charge density was supplied:
 charge density of overlapping atoms calculated
 number of electron      66.0000000 magnetization      18.0000000
 keeping initial charge density in first step


--------------------------------------------------------------------------------------------------------


 Maximum index for augmentation-charges          200 (set IRDMAX)


--------------------------------------------------------------------------------------------------------


 First call to EWALD:  gamma=   0.094
 Maximum number of real-space cells 3x 3x 3
 Maximum number of reciprocal cells 3x 3x 3

 FEWALD executed in parallel
    FEWALD:  cpu time    0.0018: real time    0.0018


----------------------------------------- Iteration    1(   1)  ---------------------------------------


    POTLOK:  cpu time    0.3008: real time    0.3039
    SETDIJ:  cpu time    0.0068: real time    0.0068
     EDDAV:  cpu time    0.4479: real time    0.4505
       DOS:  cpu time    0.0001: real time    0.0001
    --------------------------------------------
      LOOP:  cpu time    0.7584: real time    0.8100

 eigenvalue-minimisations  :   192
 total energy-change (2. order) : 0.4230295E+03  (-0.9655195E+03)
 number of electron      66.0000000 magnetization      18.0000000
 augmentation part       66.0000000 magnetization      18.0000000

 Free energy of the ion-electron system (eV)
  ---------------------------------------------------
  alpha Z        PSCENC =         3.91832704
  Ewald energy   TEWEN  =      4475.98146460
  -Hartree energ DENC   =    -12089.86807744
  -exchange      EXHF   =         0.00000000
  -V(xc)+E(xc)   XCENC  =       273.02964951
  PAW double counting   =      7363.30307882    -7997.37526114
  entropy T*S    EENTRO =         0.00000000
  eigenvalues    EBANDS =        48.42682544
  atomic energy  EATOM  =      8345.61350795
  Solvation  Ediel_sol  =         0.00000000
  ---------------------------------------------------
  free energy    TOTEN  =       423.02951477 eV

  energy without entropy =      423.02951477  energy(sigma->0) =      423.02951477


--------------------------------------------------------------------------------------------------------




----------------------------------------- Iteration    1(   2)  ---------------------------------------


     EDDAV:  cpu time    0.5486: real time    0.5491
       DOS:  cpu time    0.0001: real time    0.0001
    --------------------------------------------
      LOOP:  cpu time    0.5510: real time    0.5541

 eigenvalue-minimisations  :   256
 total energy-change (2. order) :-0.3101004E+03  (-0.2666244E+03)
 number of electron      66.0000000 magnetization      18.0000000
 augmentation part       66.0000000 magnetization      18.0000000

 Free energy of the ion-electron system (eV)
  ---------------------------------------------------
  alpha Z        PSCENC =         3.91832704
  Ewald energy   TEWEN  =      4475.98146460
  -Hartree energ DENC   =    -12089.86807744
  -exchange      EXHF   =         0.00000000
  -V(xc)+E(xc)   XCENC  =       273.02964951
  PAW double counting   =      7363.30307882    -7997.37526114
  entropy T*S    EENTRO =         0.00000000
  eigenvalues    EBANDS =      -261.67353878
  atomic energy  EATOM  =      8345.61350795
  Solvation  Ediel_sol  =         0.00000000
  ---------------------------------------------------
  free energy    TOTEN  =       112.92915054 eV

  energy without entropy =      112.92915054  energy(sigma->0) =      112.92915054


--------------------------------------------------------------------------------------------------------




----------------------------------------- Iteration    1(   3)  ---------------------------------------


     EDDAV:  cpu time    0.5442: real time    0.5452
       DOS:  cpu time    0.0001: real time    0.0001
    --------------------------------------------
      LOOP:  cpu time    0.5465: real time    0.5498

 eigenvalue-minimisations  :   256
 total energy-change (2. order) :-0.1039851E+03  (-0.9723606E+02)
 number of electron      66.0000000 magnetization      18.0000000
 augmentation part       66.0000000 magnetization      18.0000000

 Free energy of the ion-electron system (eV)
  ---------------------------------------------------
  alpha Z        PSCENC =         3.91832704
  Ewald energy   TEWEN  =      4475.98146460
  -Hartree energ DENC   =    -12089.86807744
  -exchange      EXHF   =         0.00000000
  -V(xc)+E(xc)   XCENC  =       273.02964951
  PAW double counting   =      7363.30307882    -7997.37526114
  entropy T*S    EENTRO =         0.00000000
  eigenvalues    EBANDS =      -365.65859909
  atomic energy  EATOM  =      8345.61350795
  Solvation  Ediel_sol  =         0.00000000
  ---------------------------------------------------
  free energy    TOTEN  =         8.94409023 eV

  energy without entropy =        8.94409023  energy(sigma->0) =        8.94409023


--------------------------------------------------------------------------------------------------------




----------------------------------------- Iteration    1(   4)  ---------------------------------------


     EDDAV:  cpu time    0.5593: real time    0.5597
       DOS:  cpu time    0.0001: real time    0.0001
    --------------------------------------------
      LOOP:  cpu time    0.5615: real time    0.5646

 eigenvalue-minimisations  :   256
 total energy-change (2. order) :-0.1364711E+02  (-0.1192289E+02)
 number of electron      66.0000000 magnetization      18.0000000
 augmentation part       66.0000000 magnetization      18.0000000

 Free energy of the ion-electron system (eV)
  ---------------------------------------------------
  alpha Z        PSCENC =         3.91832704
  Ewald energy   TEWEN  =      4475.98146460
  -Hartree energ DENC   =    -12089.86807744
  -exchange      EXHF   =         0.00000000
  -V(xc)+E(xc)   XCENC  =       273.02964951
  PAW double counting   =      7363.30307882    -7997.37526114
  entropy T*S    EENTRO =        -0.00000000
  eigenvalues    EBANDS =      -379.30571178
  atomic energy  EATOM  =      8345.61350795
  Solvation  Ediel_sol  =         0.00000000
  ---------------------------------------------------
  free energy    TOTEN  =        -4.70302246 eV

  energy without entropy =       -4.70302246  energy(sigma->0) =       -4.70302246


--------------------------------------------------------------------------------------------------------




----------------------------------------- Iteration    1(   5)  ---------------------------------------


     EDDAV:  cpu time    0.4950: real time    0.4957
       DOS:  cpu time    0.0001: real time    0.0001
    CHARGE:  cpu time    0.0439: real time    0.0439
    MIXING:  cpu time    0.0073: real time    0.0074
    --------------------------------------------
      LOOP:  cpu time    0.5487: real time    0.5522

 eigenvalue-minimisations  :   224
 total energy-change (2. order) :-0.6934611E+00  (-0.6481267E+00)
 number of electron      65.9999872 magnetization      15.7643619
 augmentation part       39.6100325 magnetization      14.6021199

 Broyden mixing:
  rms(total) = 0.42848E+01    rms(broyden)= 0.42831E+01
  rms(prec ) = 0.43334E+01
  weight for this iteration     100.00

 Free energy of the ion-electron system (eV)
  ---------------------------------------------------
  alpha Z        PSCENC =         3.91832704
  Ewald energy   TEWEN  =      4475.98146460
  -Hartree energ DENC   =    -12089.86807744
  -exchange      EXHF   =         0.00000000
  -V(xc)+E(xc)   XCENC  =       273.02964951
  PAW double counting   =      7363.30307882    -7997.37526114
  entropy T*S    EENTRO =         0.00000000
  eigenvalues    EBANDS =      -379.99917284
  atomic energy  EATOM  =      8345.61350795
  Solvation  Ediel_sol  =         0.00000000
  ---------------------------------------------------
  free energy    TOTEN  =        -5.39648351 eV

  energy without entropy =       -5.39648351  energy(sigma->0) =       -5.39648351


--------------------------------------------------------------------------------------------------------




----------------------------------------- Iteration    1(   6)  ---------------------------------------


    POTLOK:  cpu time    0.2953: real time    0.2959
    SETDIJ:  cpu time    0.0067: real time    0.0067
     EDDAV:  cpu time    0.4935: real time    0.4941
       DOS:  cpu time    0.0001: real time    0.0001
    CHARGE:  cpu time    0.0409: real time    0.0410
    MIXING:  cpu time    0.0075: real time    0.0075
    --------------------------------------------
      LOOP:  cpu time    0.8476: real time    0.8514

 eigenvalue-minimisations  :   224
 total energy-change (2. order) : 0.6018732E+02  (-0.2991692E+02)
 number of electron      65.9999875 magnetization      14.2574781
 augmentation part       45.1588489 magnetization       8.9577336

 Broyden mixing:
  rms(total) = 0.17151E+01    rms(broyden)= 0.17120E+01
  rms(prec ) = 0.18174E+01
  weight for this iteration     100.00

 eigenvalues of (default mixing * dielectric matrix)
  average eigenvalue GAMMA=   0.9118
  0.9118

 Free energy of the ion-electron system (eV)
  ---------------------------------------------------
  alpha Z        PSCENC =         3.91832704
  Ewald energy   TEWEN  =      4475.98146460
  -Hartree energ DENC   =    -11938.64406889
  -exchange      EXHF   =         0.00000000
  -V(xc)+E(xc)   XCENC  =       309.91996232
  PAW double counting   =      7348.67822375    -7957.04226504
  entropy T*S    EENTRO =         0.00000000
  eigenvalues    EBANDS =      -533.63431263
  atomic energy  EATOM  =      8345.61350795
  Solvation  Ediel_sol  =         0.00000000
  ---------------------------------------------------
  free energy    TOTEN  =        54.79083908 eV

  energy without entropy =       54.79083908  energy(sigma->0) =       54.79083908


--------------------------------------------------------------------------------------------------------




----------------------------------------- Iteration    1(   7)  ---------------------------------------


    POTLOK:  cpu time    0.2940: real time    0.2941
    SETDIJ:  cpu time    0.0066: real time    0.0067
     EDDAV:  cpu time    0.5054: real time    0.5063
       DOS:  cpu time    0.0001: real time    0.0001
    CHARGE:  cpu time    0.0411: real time    0.0411
    MIXING:  cpu time    0.0076: real time    0.0076
    --------------------------------------------
      LOOP:  cpu time    0.8582: real time    0.8620

 eigenvalue-minimisations  :   232
 total energy-change (2. order) :-0.2003955E+02  (-0.1176391E+02)
 number of electron      65.9999874 magnetization      12.5266977
 augmentation part       42.9049856 magnetization       6.8987566

 Broyden mixing:
  rms(total) = 0.71834E+00    rms(broyden)= 0.71735E+00
  rms(prec ) = 0.74008E+00
  weight for this iteration     100.00

 eigenvalues of (default mixing * dielectric matrix)
  average eigenvalue GAMMA=   0.8976
  1.1333  0.6618

 Free energy of the ion-electron system (eV)
  ---------------------------------------------------
  alpha Z        PSCENC =         3.91832704
  Ewald energy   TEWEN  =      4475.98146460
  -Hartree energ DENC   =    -12067.47620771
  -exchange      EXHF   =         0.00000000
  -V(xc)+E(xc)   XCENC  =       301.57678901
  PAW double counting   =      7535.86837421    -8191.13288003
  entropy T*S    EENTRO =         0.00000000
  eigenvalues    EBANDS =      -369.59809059
  atomic energy  EATOM  =      8345.61350795
  Solvation  Ediel_sol  =         0.00000000
  ---------------------------------------------------
  free energy    TOTEN  =        34.75128447 eV

  energy without entropy =       34.75128447  energy(sigma->0) =       34.75128447


--------------------------------------------------------------------------------------------------------




----------------------------------------- Iteration    1(   8)  ---------------------------------------


    POTLOK:  cpu time    0.2936: real time    0.2937
    SETDIJ:  cpu time    0.0069: real time    0.0069
     EDDAV:  cpu time    0.5764: real time    0.5774
       DOS:  cpu time    0.0001: real time    0.0001
    CHARGE:  cpu time    0.0431: real time    0.0431
    MIXING:  cpu time    0.0084: real time    0.0084
    --------------------------------------------
      LOOP:  cpu time    0.9317: real time    0.9354

 eigenvalue-minimisations  :   264
 total energy-change (2. order) :-0.1277754E+01  (-0.1368605E+01)
 number of electron      65.9999880 magnetization      11.6240813
 augmentation part       42.3196553 magnetization       5.8228212

 Broyden mixing:
  rms(total) = 0.59307E+00    rms(broyden)= 0.59245E+00
  rms(prec ) = 0.62527E+00
  weight for this iteration     100.00

 eigenvalues of (default mixing * dielectric matrix)
  average eigenvalue GAMMA=   0.8260
  1.2011  0.6385  0.6385

 Free energy of the ion-electron system (eV)
  ---------------------------------------------------
  alpha Z        PSCENC =         3.91832704
  Ewald energy   TEWEN  =      4475.98146460
  -Hartree energ DENC   =    -12096.63521579
  -exchange      EXHF   =         0.00000000
  -V(xc)+E(xc)   XCENC  =       300.86484785
  PAW double counting   =      7665.27101846    -8323.12706764
  entropy T*S    EENTRO =         0.00000000
  eigenvalues    EBANDS =      -338.41335158
  atomic energy  EATOM  =      8345.61350795
  Solvation  Ediel_sol  =         0.00000000
  ---------------------------------------------------
  free energy    TOTEN  =        33.47353087 eV

  energy without entropy =       33.47353087  energy(sigma->0) =       33.47353087


--------------------------------------------------------------------------------------------------------




----------------------------------------- Iteration    1(   9)  ---------------------------------------


    POTLOK:  cpu time    0.2950: real time    0.2954
    SETDIJ:  cpu time    0.0068: real time    0.0068
     EDDAV:  cpu time    0.5220: real time    0.5229
       DOS:  cpu time    0.0001: real time    0.0001
    CHARGE:  cpu time    0.0425: real time    0.0425
    MIXING:  cpu time    0.0086: real time    0.0086
    --------------------------------------------
      LOOP:  cpu time    0.8782: real time    0.8823

 eigenvalue-minimisations  :   240
 total energy-change (2. order) :-0.4898781E+01  (-0.3056004E+00)
 number of electron      65.9999877 magnetization       9.8924297
 augmentation part       42.4322009 magnetization       4.2195979

 Broyden mixing:
  rms(total) = 0.35946E+00    rms(broyden)= 0.35925E+00
  rms(prec ) = 0.36653E+00
  weight for this iteration     100.00

 eigenvalues of (default mixing * dielectric matrix)
  average eigenvalue GAMMA=   0.8865
  1.1512  1.1512  0.6985  0.5450

 Free energy of the ion-electron system (eV)
  ---------------------------------------------------
  alpha Z        PSCENC =         3.91832704
  Ewald energy   TEWEN  =      4475.98146460
  -Hartree energ DENC   =    -12092.00244435
  -exchange      EXHF   =         0.00000000
  -V(xc)+E(xc)   XCENC  =       296.50164084
  PAW double counting   =      7691.42011936    -8345.04561824
  entropy T*S    EENTRO =         0.00000000
  eigenvalues    EBANDS =      -347.81224774
  atomic energy  EATOM  =      8345.61350795
  Solvation  Ediel_sol  =         0.00000000
  ---------------------------------------------------
  free energy    TOTEN  =        28.57474944 eV

  energy without entropy =       28.57474944  energy(sigma->0) =       28.57474944


--------------------------------------------------------------------------------------------------------




----------------------------------------- Iteration    1(  10)  ---------------------------------------


    POTLOK:  cpu time    0.2956: real time    0.2957
    SETDIJ:  cpu time    0.0068: real time    0.0068
     EDDAV:  cpu time    0.4942: real time    0.4949
       DOS:  cpu time    0.0001: real time    0.0001
    CHARGE:  cpu time    0.0406: real time    0.0406
    MIXING:  cpu time    0.0094: real time    0.0094
    --------------------------------------------
      LOOP:  cpu time    0.8502: real time    0.8534

 eigenvalue-minimisations  :   224
 total energy-change (2. order) :-0.1495126E+02  (-0.8449197E+00)
 number of electron      65.9999879 magnetization       8.6051234
 augmentation part       42.7550938 magnetization       5.2584790

 Broyden mixing:
  rms(total) = 0.39859E+00    rms(broyden)= 0.39751E+00
  rms(prec ) = 0.41584E+00
  weight for this iteration     100.00

 eigenvalues of (default mixing * dielectric matrix)
  average eigenvalue GAMMA=   0.8684
  1.3762  1.3762  0.6041  0.6041  0.3814

 Free energy of the ion-electron system (eV)
  ---------------------------------------------------
  alpha Z        PSCENC =         3.91832704
  Ewald energy   TEWEN  =      4475.98146460
  -Hartree energ DENC   =    -12079.93128917
  -exchange      EXHF   =         0.00000000
  -V(xc)+E(xc)   XCENC  =       284.24990830
  PAW double counting   =      7707.73025435    -8351.85699319
  entropy T*S    EENTRO =         0.00000000
  eigenvalues    EBANDS =      -372.08169304
  atomic energy  EATOM  =      8345.61350795
  Solvation  Ediel_sol  =         0.00000000
  ---------------------------------------------------
  free energy    TOTEN  =        13.62348683 eV

  energy without entropy =       13.62348683  energy(sigma->0) =       13.62348683


--------------------------------------------------------------------------------------------------------




----------------------------------------- Iteration    1(  11)  ---------------------------------------


    POTLOK:  cpu time    0.2923: real time    0.2945
    SETDIJ:  cpu time    0.0065: real time    0.0065
     EDDAV:  cpu time    0.5302: real time    0.5309
       DOS:  cpu time    0.0001: real time    0.0001
    CHARGE:  cpu time    0.0416: real time    0.0416
    MIXING:  cpu time    0.0095: real time    0.0095
    --------------------------------------------
      LOOP:  cpu time    0.8832: real time    0.8889

 eigenvalue-minimisations  :   248
 total energy-change (2. order) :-0.3710108E+01  (-0.2442136E+00)
 number of electron      65.9999878 magnetization       7.4801031
 augmentation part       42.6999398 magnetization       4.3933208

 Broyden mixing:
  rms(total) = 0.29839E+00    rms(broyden)= 0.29830E+00
  rms(prec ) = 0.30980E+00
  weight for this iteration     100.00

 eigenvalues of (default mixing * dielectric matrix)
  average eigenvalue GAMMA=   0.9879
  1.7390  1.7390  0.6421  0.6421  0.6350  0.5303

 Free energy of the ion-electron system (eV)
  ---------------------------------------------------
  alpha Z        PSCENC =         3.91832704
  Ewald energy   TEWEN  =      4475.98146460
  -Hartree energ DENC   =    -12088.06332533
  -exchange      EXHF   =         0.00000000
  -V(xc)+E(xc)   XCENC  =       281.90249189
  PAW double counting   =      7744.62155173    -8387.12208857
  entropy T*S    EENTRO =        -0.00000000
  eigenvalues    EBANDS =      -366.93855055
  atomic energy  EATOM  =      8345.61350795
  Solvation  Ediel_sol  =         0.00000000
  ---------------------------------------------------
  free energy    TOTEN  =         9.91337875 eV

  energy without entropy =        9.91337875  energy(sigma->0) =        9.91337875


--------------------------------------------------------------------------------------------------------




----------------------------------------- Iteration    1(  12)  ---------------------------------------


    POTLOK:  cpu time    0.2943: real time    0.2943
    SETDIJ:  cpu time    0.0067: real time    0.0067
     EDDAV:  cpu time    0.5311: real time    0.5319
       DOS:  cpu time    0.0001: real time    0.0001
    CHARGE:  cpu time    0.0418: real time    0.0418
    MIXING:  cpu time    0.0098: real time    0.0099
    --------------------------------------------
      LOOP:  cpu time    0.8870: real time    0.8906

 eigenvalue-minimisations  :   248
 total energy-change (2. order) :-0.5470342E+01  (-0.2715161E+00)
 number of electron      65.9999879 magnetization       5.7795704
 augmentation part       42.5453970 magnetization       2.9832637

 Broyden mixing:
  rms(total) = 0.22594E+00    rms(broyden)= 0.22587E+00
  rms(prec ) = 0.23556E+00
  weight for this iteration     100.00

 eigenvalues of (default mixing * dielectric matrix)
  average eigenvalue GAMMA=   1.1228
  2.3019  2.3019  0.7593  0.7593  0.7191  0.5090  0.5090

 Free energy of the ion-electron system (eV)
  ---------------------------------------------------
  alpha Z        PSCENC =         3.91832704
  Ewald energy   TEWEN  =      4475.98146460
  -Hartree energ DENC   =    -12093.25798380
  -exchange      EXHF   =         0.00000000
  -V(xc)+E(xc)   XCENC  =       277.88893826
  PAW double counting   =      7750.27134316    -8392.36002238
  entropy T*S    EENTRO =         0.00000000
  eigenvalues    EBANDS =      -363.61253821
  atomic energy  EATOM  =      8345.61350795
  Solvation  Ediel_sol  =         0.00000000
  ---------------------------------------------------
  free energy    TOTEN  =         4.44303661 eV

  energy without entropy =        4.44303661  energy(sigma->0) =        4.44303661


--------------------------------------------------------------------------------------------------------




----------------------------------------- Iteration    1(  13)  ---------------------------------------


    POTLOK:  cpu time    0.2946: real time    0.2947
    SETDIJ:  cpu time    0.0068: real time    0.0068
     EDDAV:  cpu time    0.5829: real time    0.5838
       DOS:  cpu time    0.0001: real time    0.0001
    CHARGE:  cpu time    0.0425: real time    0.0425
    MIXING:  cpu time    0.0104: real time    0.0104
    --------------------------------------------
      LOOP:  cpu time    0.9403: real time    0.9439

 eigenvalue-minimisations  :   280
 total energy-change (2. order) :-0.7449831E+01  (-0.4005810E+00)
 number of electron      65.9999876 magnetization       5.2064761
 augmentation part       42.6247218 magnetization       4.5886697

 Broyden mixing:
  rms(total) = 0.34606E+00    rms(broyden)= 0.34486E+00
  rms(prec ) = 0.36078E+00
  weight for this iteration     100.00

 eigenvalues of (default mixing * dielectric matrix)
  average eigenvalue GAMMA=   0.9999
  2.3201  2.3201  0.7664  0.7664  0.7168  0.5154  0.5154  0.0785

 Free energy of the ion-electron system (eV)
  ---------------------------------------------------
  alpha Z        PSCENC =         3.91832704
  Ewald energy   TEWEN  =      4475.98146460
  -Hartree energ DENC   =    -12092.42756367
  -exchange      EXHF   =         0.00000000
  -V(xc)+E(xc)   XCENC  =       272.01147315
  PAW double counting   =      7737.40106910    -8378.25120763
  entropy T*S    EENTRO =         0.00000000
  eigenvalues    EBANDS =      -367.25386455
  atomic energy  EATOM  =      8345.61350795
  Solvation  Ediel_sol  =         0.00000000
  ---------------------------------------------------
  free energy    TOTEN  =        -3.00679402 eV

  energy without entropy =       -3.00679402  energy(sigma->0) =       -3.00679402


--------------------------------------------------------------------------------------------------------




----------------------------------------- Iteration    1(  14)  ---------------------------------------


    POTLOK:  cpu time    0.2999: real time    0.3016
    SETDIJ:  cpu time    0.0079: real time    0.0079
     EDDAV:  cpu time    0.4993: real time    0.5000
       DOS:  cpu time    0.0001: real time    0.0001
    CHARGE:  cpu time    0.0433: real time    0.0433
    MIXING:  cpu time    0.0116: real time    0.0116
    --------------------------------------------
      LOOP:  cpu time    0.8653: real time    0.9256

 eigenvalue-minimisations  :   224
 total energy-change (2. order) :-0.3407291E+00  (-0.5306723E-01)
 number of electron      65.9999876 magnetization       3.6467054
 augmentation part       42.5903300 magnetization       3.1643737

 Broyden mixing:
  rms(total) = 0.28016E+00    rms(broyden)= 0.28011E+00
  rms(prec ) = 0.29363E+00
  weight for this iteration     100.00

 eigenvalues of (default mixing * dielectric matrix)
  average eigenvalue GAMMA=   1.0935
  3.2506  2.2209  0.8515  0.8515  0.6069  0.6069  0.4744  0.4892  0.4892

 Free energy of the ion-electron system (eV)
  ---------------------------------------------------
  alpha Z        PSCENC =         3.91832704
  Ewald energy   TEWEN  =      4475.98146460
  -Hartree energ DENC   =    -12095.88433073
  -exchange      EXHF   =         0.00000000
  -V(xc)+E(xc)   XCENC  =       272.03710313
  PAW double counting   =      7745.53095416    -8386.41780892
  entropy T*S    EENTRO =         0.00000000
  eigenvalues    EBANDS =      -364.12674037
  atomic energy  EATOM  =      8345.61350795
  Solvation  Ediel_sol  =         0.00000000
  ---------------------------------------------------
  free energy    TOTEN  =        -3.34752313 eV

  energy without entropy =       -3.34752313  energy(sigma->0) =       -3.34752313


--------------------------------------------------------------------------------------------------------




----------------------------------------- Iteration    1(  15)  ---------------------------------------


    POTLOK:  cpu time    0.2966: real time    0.3030
    SETDIJ:  cpu time    0.0067: real time    0.0067
     EDDAV:  cpu time    0.5452: real time    0.5462
       DOS:  cpu time    0.0001: real time    0.0001
    CHARGE:  cpu time    0.0427: real time    0.0428
    MIXING:  cpu time    0.0121: real time    0.0121
    --------------------------------------------
      LOOP:  cpu time    0.9067: real time    0.9168

 eigenvalue-minimisations  :   256
 total energy-change (2. order) :-0.3592306E+01  (-0.2331188E+00)
 number of electron      65.9999877 magnetization       2.6581630
 augmentation part       42.6194120 magnetization       2.4311240

 Broyden mixing:
  rms(total) = 0.22611E+00    rms(broyden)= 0.22609E+00
  rms(prec ) = 0.23507E+00
  weight for this iteration     100.00

 eigenvalues of (default mixing * dielectric matrix)
  average eigenvalue GAMMA=   1.1122
  3.9807  1.5043  1.1530  1.1530  0.6709  0.6709  0.5184  0.5184  0.5265  0.4259

 Free energy of the ion-electron system (eV)
  ---------------------------------------------------
  alpha Z        PSCENC =         3.91832704
  Ewald energy   TEWEN  =      4475.98146460
  -Hartree energ DENC   =    -12097.36923276
  -exchange      EXHF   =         0.00000000
  -V(xc)+E(xc)   XCENC  =       269.38259297
  PAW double counting   =      7730.60198606    -8370.68516380
  entropy T*S    EENTRO =         0.00000000
  eigenvalues    EBANDS =      -364.38331087
  atomic energy  EATOM  =      8345.61350795
  Solvation  Ediel_sol  =         0.00000000
  ---------------------------------------------------
  free energy    TOTEN  =        -6.93982882 eV

  energy without entropy =       -6.93982882  energy(sigma->0) =       -6.93982882


--------------------------------------------------------------------------------------------------------




----------------------------------------- Iteration    1(  16)  ---------------------------------------


    POTLOK:  cpu time    0.2945: real time    0.2946
    SETDIJ:  cpu time    0.0067: real time    0.0067
     EDDAV:  cpu time    0.6069: real time    0.6078
       DOS:  cpu time    0.0001: real time    0.0001
    CHARGE:  cpu time    0.0426: real time    0.0426
    MIXING:  cpu time    0.0122: real time    0.0122
    --------------------------------------------
      LOOP:  cpu time    0.9663: real time    0.9701

 eigenvalue-minimisations  :   296
 total energy-change (2. order) :-0.1755311E+01  (-0.8489907E-01)
 number of electron      65.9999878 magnetization       1.0047263
 augmentation part       42.4681323 magnetization       0.8582451

 Broyden mixing:
  rms(total) = 0.10857E+00    rms(broyden)= 0.10855E+00
  rms(prec ) = 0.11644E+00
  weight for this iteration     100.00

 eigenvalues of (default mixing * dielectric matrix)
  average eigenvalue GAMMA=   1.2776
  5.3754  1.9469  1.2567  1.1196  1.1196  0.6422  0.6422  0.4726  0.4726  0.5336
  0.4723

 Free energy of the ion-electron system (eV)
  ---------------------------------------------------
  alpha Z        PSCENC =         3.91832704
  Ewald energy   TEWEN  =      4475.98146460
  -Hartree energ DENC   =    -12104.02115842
  -exchange      EXHF   =         0.00000000
  -V(xc)+E(xc)   XCENC  =       268.21638308
  PAW double counting   =      7734.59510109    -8376.02044023
  entropy T*S    EENTRO =         0.00000000
  eigenvalues    EBANDS =      -356.97832541
  atomic energy  EATOM  =      8345.61350795
  Solvation  Ediel_sol  =         0.00000000
  ---------------------------------------------------
  free energy    TOTEN  =        -8.69514032 eV

  energy without entropy =       -8.69514032  energy(sigma->0) =       -8.69514032


--------------------------------------------------------------------------------------------------------




----------------------------------------- Iteration    1(  17)  ---------------------------------------


    POTLOK:  cpu time    0.2948: real time    0.2950
    SETDIJ:  cpu time    0.0067: real time    0.0067
     EDDAV:  cpu time    0.5703: real time    0.5711
       DOS:  cpu time    0.0001: real time    0.0001
    CHARGE:  cpu time    0.0424: real time    0.0424
    MIXING:  cpu time    0.0128: real time    0.0128
    --------------------------------------------
      LOOP:  cpu time    0.9304: real time    0.9337

 eigenvalue-minimisations  :   272
 total energy-change (2. order) :-0.1850533E+01  (-0.7345330E-01)
 number of electron      65.9999878 magnetization       0.6778704
 augmentation part       42.4685238 magnetization       0.6510338

 Broyden mixing:
  rms(total) = 0.66492E-01    rms(broyden)= 0.66429E-01
  rms(prec ) = 0.70691E-01
  weight for this iteration     100.00

 eigenvalues of (default mixing * dielectric matrix)
  average eigenvalue GAMMA=   1.3003
  5.9188  1.7795  1.7795  1.1450  1.1450  0.6579  0.6579  0.6468  0.4622  0.4622
  0.4948  0.4541

 Free energy of the ion-electron system (eV)
  ---------------------------------------------------
  alpha Z        PSCENC =         3.91832704
  Ewald energy   TEWEN  =      4475.98146460
  -Hartree energ DENC   =    -12101.33152517
  -exchange      EXHF   =         0.00000000
  -V(xc)+E(xc)   XCENC  =       266.57876579
  PAW double counting   =      7704.96378296    -8346.83720280
  entropy T*S    EENTRO =         0.00000000
  eigenvalues    EBANDS =      -359.43279334
  atomic energy  EATOM  =      8345.61350795
  Solvation  Ediel_sol  =         0.00000000
  ---------------------------------------------------
  free energy    TOTEN  =       -10.54567297 eV

  energy without entropy =      -10.54567297  energy(sigma->0) =      -10.54567297


--------------------------------------------------------------------------------------------------------




----------------------------------------- Iteration    1(  18)  ---------------------------------------


    POTLOK:  cpu time    0.2924: real time    0.2985
    SETDIJ:  cpu time    0.0068: real time    0.0068
     EDDAV:  cpu time    0.5178: real time    0.5185
       DOS:  cpu time    0.0001: real time    0.0001
    CHARGE:  cpu time    0.0424: real time    0.0424
    MIXING:  cpu time    0.0136: real time    0.0136
    --------------------------------------------
      LOOP:  cpu time    0.8762: real time    0.8857

 eigenvalue-minimisations  :   240
 total energy-change (2. order) :-0.6914400E+00  (-0.1741562E-01)
 number of electron      65.9999878 magnetization       0.5320169
 augmentation part       42.4799478 magnetization       0.5252186

 Broyden mixing:
  rms(total) = 0.47436E-01    rms(broyden)= 0.47430E-01
  rms(prec ) = 0.51747E-01
  weight for this iteration     100.00

 eigenvalues of (default mixing * dielectric matrix)
  average eigenvalue GAMMA=   1.3039
  6.0103  1.7688  1.6771  1.6771  1.0089  1.0089  0.6697  0.6697  0.4650  0.4650
  0.5918  0.4692  0.4692

 Free energy of the ion-electron system (eV)
  ---------------------------------------------------
  alpha Z        PSCENC =         3.91832704
  Ewald energy   TEWEN  =      4475.98146460
  -Hartree energ DENC   =    -12099.84059740
  -exchange      EXHF   =         0.00000000
  -V(xc)+E(xc)   XCENC  =       265.92819877
  PAW double counting   =      7705.63777852    -8347.23197048
  entropy T*S    EENTRO =         0.00000000
  eigenvalues    EBANDS =      -361.24382200
  atomic energy  EATOM  =      8345.61350795
  Solvation  Ediel_sol  =         0.00000000
  ---------------------------------------------------
  free energy    TOTEN  =       -11.23711300 eV

  energy without entropy =      -11.23711300  energy(sigma->0) =      -11.23711300


--------------------------------------------------------------------------------------------------------




----------------------------------------- Iteration    1(  19)  ---------------------------------------


    POTLOK:  cpu time    0.2948: real time    0.2951
    SETDIJ:  cpu time    0.0067: real time    0.0067
     EDDAV:  cpu time    0.4810: real time    0.4830
       DOS:  cpu time    0.0001: real time    0.0001
    CHARGE:  cpu time    0.0425: real time    0.0425
    MIXING:  cpu time    0.0144: real time    0.0144
    --------------------------------------------
      LOOP:  cpu time    0.8427: real time    0.8477

 eigenvalue-minimisations  :   216
 total energy-change (2. order) :-0.5168609E+00  (-0.6951380E-02)
 number of electron      65.9999878 magnetization       0.3445828
 augmentation part       42.5154101 magnetization       0.3343681

 Broyden mixing:
  rms(total) = 0.33338E-01    rms(broyden)= 0.33333E-01
  rms(prec ) = 0.36824E-01
  weight for this iteration     100.00

 eigenvalues of (default mixing * dielectric matrix)
  average eigenvalue GAMMA=   1.3485
  6.1914  2.9661  1.4480  1.4480  1.1528  1.1528  0.7065  0.7065  0.4650  0.4650
  0.6210  0.6210  0.4677  0.4677

 Free energy of the ion-electron system (eV)
  ---------------------------------------------------
  alpha Z        PSCENC =         3.91832704
  Ewald energy   TEWEN  =      4475.98146460
  -Hartree energ DENC   =    -12096.03761788
  -exchange      EXHF   =         0.00000000
  -V(xc)+E(xc)   XCENC  =       265.36202913
  PAW double counting   =      7699.00893614    -8340.28339434
  entropy T*S    EENTRO =         0.00000000
  eigenvalues    EBANDS =      -365.31722653
  atomic energy  EATOM  =      8345.61350795
  Solvation  Ediel_sol  =         0.00000000
  ---------------------------------------------------
  free energy    TOTEN  =       -11.75397391 eV

  energy without entropy =      -11.75397391  energy(sigma->0) =      -11.75397391


--------------------------------------------------------------------------------------------------------




----------------------------------------- Iteration    1(  20)  ---------------------------------------


    POTLOK:  cpu time    0.2949: real time    0.2950
    SETDIJ:  cpu time    0.0067: real time    0.0067
     EDDAV:  cpu time    0.5706: real time    0.5717
       DOS:  cpu time    0.0001: real time    0.0001
    CHARGE:  cpu time    0.0424: real time    0.0425
    MIXING:  cpu time    0.0152: real time    0.0152
    --------------------------------------------
      LOOP:  cpu time    0.9331: real time    0.9372

 eigenvalue-minimisations  :   272
 total energy-change (2. order) :-0.3893659E+00  (-0.2272623E-02)
 number of electron      65.9999878 magnetization       0.1350856
 augmentation part       42.5031530 magnetization       0.1246713

 Broyden mixing:
  rms(total) = 0.23834E-01    rms(broyden)= 0.23830E-01
  rms(prec ) = 0.26539E-01
  weight for this iteration     100.00

 eigenvalues of (default mixing * dielectric matrix)
  average eigenvalue GAMMA=   1.3826
  6.6714  3.2127  1.5854  1.5854  1.1219  1.1219  0.8323  0.8323  0.4650  0.4650
  0.6439  0.6439  0.6243  0.4669  0.4669

 Free energy of the ion-electron system (eV)
  ---------------------------------------------------
  alpha Z        PSCENC =         3.91832704
  Ewald energy   TEWEN  =      4475.98146460
  -Hartree energ DENC   =    -12094.45873120
  -exchange      EXHF   =         0.00000000
  -V(xc)+E(xc)   XCENC  =       264.98547282
  PAW double counting   =      7695.19625875    -8336.73630013
  entropy T*S    EENTRO =         0.00000000
  eigenvalues    EBANDS =      -366.64333966
  atomic energy  EATOM  =      8345.61350795
  Solvation  Ediel_sol  =         0.00000000
  ---------------------------------------------------
  free energy    TOTEN  =       -12.14333985 eV

  energy without entropy =      -12.14333985  energy(sigma->0) =      -12.14333985


--------------------------------------------------------------------------------------------------------




----------------------------------------- Iteration    1(  21)  ---------------------------------------


    POTLOK:  cpu time    0.2948: real time    0.2948
    SETDIJ:  cpu time    0.0066: real time    0.0066
     EDDAV:  cpu time    0.5710: real time    0.5717
       DOS:  cpu time    0.0001: real time    0.0001
    CHARGE:  cpu time    0.0425: real time    0.0425
    MIXING:  cpu time    0.0161: real time    0.0161
    --------------------------------------------
      LOOP:  cpu time    0.9343: real time    0.9377

 eigenvalue-minimisations  :   272
 total energy-change (2. order) :-0.3630455E+00  (-0.1478331E-02)
 number of electron      65.9999878 magnetization       0.0226470
 augmentation part       42.4948487 magnetization       0.0187421

 Broyden mixing:
  rms(total) = 0.13038E-01    rms(broyden)= 0.13035E-01
  rms(prec ) = 0.14933E-01
  weight for this iteration     100.00

 eigenvalues of (default mixing * dielectric matrix)
  average eigenvalue GAMMA=   1.4250
  7.0960  3.2067  2.2197  1.5179  1.5179  1.0763  1.0763  0.6996  0.6996  0.4651
  0.4651  0.6405  0.5948  0.5948  0.4647  0.4647

 Free energy of the ion-electron system (eV)
  ---------------------------------------------------
  alpha Z        PSCENC =         3.91832704
  Ewald energy   TEWEN  =      4475.98146460
  -Hartree energ DENC   =    -12092.55037083
  -exchange      EXHF   =         0.00000000
  -V(xc)+E(xc)   XCENC  =       264.62267483
  PAW double counting   =      7692.15252625    -8333.88671088
  entropy T*S    EENTRO =        -0.00000000
  eigenvalues    EBANDS =      -368.35780433
  atomic energy  EATOM  =      8345.61350795
  Solvation  Ediel_sol  =         0.00000000
  ---------------------------------------------------
  free energy    TOTEN  =       -12.50638539 eV

  energy without entropy =      -12.50638539  energy(sigma->0) =      -12.50638539


--------------------------------------------------------------------------------------------------------




----------------------------------------- Iteration    1(  22)  ---------------------------------------


    POTLOK:  cpu time    0.2928: real time    0.2948
    SETDIJ:  cpu time    0.0066: real time    0.0066
     EDDAV:  cpu time    0.6007: real time    0.6016
       DOS:  cpu time    0.0001: real time    0.0001
    CHARGE:  cpu time    0.0482: real time    0.0483
    MIXING:  cpu time    0.0234: real time    0.0235
    --------------------------------------------
      LOOP:  cpu time    0.9750: real time    1.2416

 eigenvalue-minimisations  :   288
 total energy-change (2. order) :-0.1014298E+00  (-0.3516495E-03)
 number of electron      65.9999878 magnetization       0.0367070
 augmentation part       42.4933442 magnetization       0.0399196

 Broyden mixing:
  rms(total) = 0.93157E-02    rms(broyden)= 0.93145E-02
  rms(prec ) = 0.10847E-01
  weight for this iteration     100.00

 eigenvalues of (default mixing * dielectric matrix)
  average eigenvalue GAMMA=   1.4263
  6.9951  3.7134  2.2738  1.4137  1.4137  1.1379  1.1379  0.8644  0.8644  0.4652
  0.4652  0.6834  0.6834  0.6013  0.6013  0.4662  0.4662

 Free energy of the ion-electron system (eV)
  ---------------------------------------------------
  alpha Z        PSCENC =         3.91832704
  Ewald energy   TEWEN  =      4475.98146460
  -Hartree energ DENC   =    -12091.43459198
  -exchange      EXHF   =         0.00000000
  -V(xc)+E(xc)   XCENC  =       264.50920183
  PAW double counting   =      7692.07032011    -8333.85534807
  entropy T*S    EENTRO =         0.00000000
  eigenvalues    EBANDS =      -369.41069666
  atomic energy  EATOM  =      8345.61350795
  Solvation  Ediel_sol  =         0.00000000
  ---------------------------------------------------
  free energy    TOTEN  =       -12.60781520 eV

  energy without entropy =      -12.60781520  energy(sigma->0) =      -12.60781520


--------------------------------------------------------------------------------------------------------




----------------------------------------- Iteration    1(  23)  ---------------------------------------


    POTLOK:  cpu time    0.2967: real time    0.2975
    SETDIJ:  cpu time    0.0076: real time    0.0076
     EDDAV:  cpu time    0.5191: real time    0.5197
       DOS:  cpu time    0.0001: real time    0.0001
    CHARGE:  cpu time    0.0425: real time    0.0425
    MIXING:  cpu time    0.0196: real time    0.0196
    --------------------------------------------
      LOOP:  cpu time    0.8888: real time    0.8926

 eigenvalue-minimisations  :   240
 total energy-change (2. order) :-0.3138652E-01  (-0.1200573E-03)
 number of electron      65.9999878 magnetization       0.0331817
 augmentation part       42.4992188 magnetization       0.0333091

 Broyden mixing:
  rms(total) = 0.30706E-02    rms(broyden)= 0.30687E-02
  rms(prec ) = 0.43871E-02
  weight for this iteration     100.00

 eigenvalues of (default mixing * dielectric matrix)
  average eigenvalue GAMMA=   1.4423
  6.9358  4.1180  2.4298  1.6365  1.6365  1.1044  1.1044  0.9562  0.9562  0.7082
  0.7082  0.4652  0.4652  0.6178  0.6178  0.5691  0.4664  0.4664

 Free energy of the ion-electron system (eV)
  ---------------------------------------------------
  alpha Z        PSCENC =         3.91832704
  Ewald energy   TEWEN  =      4475.98146460
  -Hartree energ DENC   =    -12090.24645885
  -exchange      EXHF   =         0.00000000
  -V(xc)+E(xc)   XCENC  =       264.45287333
  PAW double counting   =      7692.71506518    -8334.42546642
  entropy T*S    EENTRO =         0.00000000
  eigenvalues    EBANDS =      -370.64851453
  atomic energy  EATOM  =      8345.61350795
  Solvation  Ediel_sol  =         0.00000000
  ---------------------------------------------------
  free energy    TOTEN  =       -12.63920172 eV

  energy without entropy =      -12.63920172  energy(sigma->0) =      -12.63920172


--------------------------------------------------------------------------------------------------------




----------------------------------------- Iteration    1(  24)  ---------------------------------------


    POTLOK:  cpu time    0.2989: real time    0.2993
    SETDIJ:  cpu time    0.0066: real time    0.0066
     EDDAV:  cpu time    0.5823: real time    0.5840
       DOS:  cpu time    0.0001: real time    0.0001
    CHARGE:  cpu time    0.0429: real time    0.0433
    MIXING:  cpu time    0.0207: real time    0.0207
    --------------------------------------------
      LOOP:  cpu time    0.9548: real time    0.9605

 eigenvalue-minimisations  :   280
 total energy-change (2. order) :-0.7524112E-02  (-0.6114159E-04)
 number of electron      65.9999878 magnetization       0.0273994
 augmentation part       42.5031933 magnetization       0.0255475

 Broyden mixing:
  rms(total) = 0.32718E-02    rms(broyden)= 0.32708E-02
  rms(prec ) = 0.40931E-02
  weight for this iteration     100.00

 eigenvalues of (default mixing * dielectric matrix)
  average eigenvalue GAMMA=   1.4319
  6.9232  4.2919  2.2691  2.2691  1.2514  1.2514  1.1382  1.1382  0.8161  0.8161
  0.4652  0.4652  0.6743  0.6743  0.6938  0.4658  0.4658  0.5686  0.5686

 Free energy of the ion-electron system (eV)
  ---------------------------------------------------
  alpha Z        PSCENC =         3.91832704
  Ewald energy   TEWEN  =      4475.98146460
  -Hartree energ DENC   =    -12089.63889036
  -exchange      EXHF   =         0.00000000
  -V(xc)+E(xc)   XCENC  =       264.43355114
  PAW double counting   =      7693.10570958    -8334.78434755
  entropy T*S    EENTRO =         0.00000000
  eigenvalues    EBANDS =      -371.27604822
  atomic energy  EATOM  =      8345.61350795
  Solvation  Ediel_sol  =         0.00000000
  ---------------------------------------------------
  free energy    TOTEN  =       -12.64672583 eV

  energy without entropy =      -12.64672583  energy(sigma->0) =      -12.64672583


--------------------------------------------------------------------------------------------------------




----------------------------------------- Iteration    1(  25)  ---------------------------------------


    POTLOK:  cpu time    0.2947: real time    0.2950
    SETDIJ:  cpu time    0.0069: real time    0.0069
     EDDAV:  cpu time    0.5945: real time    0.5950
       DOS:  cpu time    0.0001: real time    0.0001
    CHARGE:  cpu time    0.0425: real time    0.0425
    MIXING:  cpu time    0.0210: real time    0.0210
    --------------------------------------------
      LOOP:  cpu time    0.9634: real time    0.9670

 eigenvalue-minimisations  :   288
 total energy-change (2. order) :-0.1191765E-02  (-0.2173272E-04)
 number of electron      65.9999878 magnetization       0.0088460
 augmentation part       42.5048784 magnetization       0.0068574

 Broyden mixing:
  rms(total) = 0.29300E-02    rms(broyden)= 0.29298E-02
  rms(prec ) = 0.35406E-02
  weight for this iteration     100.00

 eigenvalues of (default mixing * dielectric matrix)
  average eigenvalue GAMMA=   1.4507
  7.0091  4.3422  2.5342  2.5342  1.3847  1.3847  1.1051  1.1051  0.9468  0.9468
  0.7165  0.7165  0.4652  0.4652  0.6352  0.6352  0.4661  0.4661  0.5779  0.5779

 Free energy of the ion-electron system (eV)
  ---------------------------------------------------
  alpha Z        PSCENC =         3.91832704
  Ewald energy   TEWEN  =      4475.98146460
  -Hartree energ DENC   =    -12089.30874212
  -exchange      EXHF   =         0.00000000
  -V(xc)+E(xc)   XCENC  =       264.42793719
  PAW double counting   =      7693.07029150    -8334.74410495
  entropy T*S    EENTRO =         0.00000000
  eigenvalues    EBANDS =      -371.60659879
  atomic energy  EATOM  =      8345.61350795
  Solvation  Ediel_sol  =         0.00000000
  ---------------------------------------------------
  free energy    TOTEN  =       -12.64791759 eV

  energy without entropy =      -12.64791759  energy(sigma->0) =      -12.64791759


--------------------------------------------------------------------------------------------------------




----------------------------------------- Iteration    1(  26)  ---------------------------------------


    POTLOK:  cpu time    0.2941: real time    0.2944
    SETDIJ:  cpu time    0.0070: real time    0.0070
     EDDAV:  cpu time    0.5938: real time    0.5946
       DOS:  cpu time    0.0001: real time    0.0001
    CHARGE:  cpu time    0.0422: real time    0.0425
    MIXING:  cpu time    0.0224: real time    0.0224
    --------------------------------------------
      LOOP:  cpu time    0.9628: real time    0.9669

 eigenvalue-minimisations  :   288
 total energy-change (2. order) :-0.6403472E-03  (-0.3067806E-04)
 number of electron      65.9999878 magnetization       0.0044060
 augmentation part       42.5032545 magnetization       0.0039183

 Broyden mixing:
  rms(total) = 0.15597E-02    rms(broyden)= 0.15594E-02
  rms(prec ) = 0.19870E-02
  weight for this iteration     100.00

 eigenvalues of (default mixing * dielectric matrix)
  average eigenvalue GAMMA=   1.4606
  7.0175  4.5502  3.0860  2.0759  1.8247  1.2326  1.2326  1.2298  0.9648  0.9648
  0.4652  0.4652  0.7091  0.7091  0.7375  0.7375  0.4660  0.4660  0.5870  0.5870
  0.5637

 Free energy of the ion-electron system (eV)
  ---------------------------------------------------
  alpha Z        PSCENC =         3.91832704
  Ewald energy   TEWEN  =      4475.98146460
  -Hartree energ DENC   =    -12089.05976965
  -exchange      EXHF   =         0.00000000
  -V(xc)+E(xc)   XCENC  =       264.42845317
  PAW double counting   =      7693.21743003    -8334.92453967
  entropy T*S    EENTRO =         0.00000000
  eigenvalues    EBANDS =      -371.82343140
  atomic energy  EATOM  =      8345.61350795
  Solvation  Ediel_sol  =         0.00000000
  ---------------------------------------------------
  free energy    TOTEN  =       -12.64855794 eV

  energy without entropy =      -12.64855794  energy(sigma->0) =      -12.64855794


--------------------------------------------------------------------------------------------------------




----------------------------------------- Iteration    1(  27)  ---------------------------------------


    POTLOK:  cpu time    0.2938: real time    0.2940
    SETDIJ:  cpu time    0.0066: real time    0.0066
     EDDAV:  cpu time    0.5695: real time    0.5704
       DOS:  cpu time    0.0001: real time    0.0001
    CHARGE:  cpu time    0.0425: real time    0.0425
    MIXING:  cpu time    0.0242: real time    0.0242
    --------------------------------------------
      LOOP:  cpu time    0.9399: real time    0.9437

 eigenvalue-minimisations  :   272
 total energy-change (2. order) :-0.9438553E-03  (-0.8632774E-05)
 number of electron      65.9999878 magnetization      -0.0015868
 augmentation part       42.5013923 magnetization      -0.0020484

 Broyden mixing:
  rms(total) = 0.11546E-02    rms(broyden)= 0.11544E-02
  rms(prec ) = 0.14748E-02
  weight for this iteration     100.00

 eigenvalues of (default mixing * dielectric matrix)
  average eigenvalue GAMMA=   1.4567
  7.0854  4.3858  3.5020  1.8748  1.7460  1.7460  1.2358  1.2358  0.9572  0.9572
  0.4652  0.4652  0.7215  0.7215  0.7774  0.7774  0.6667  0.6667  0.4660  0.4660
  0.5636  0.5636

 Free energy of the ion-electron system (eV)
  ---------------------------------------------------
  alpha Z        PSCENC =         3.91832704
  Ewald energy   TEWEN  =      4475.98146460
  -Hartree energ DENC   =    -12088.93657232
  -exchange      EXHF   =         0.00000000
  -V(xc)+E(xc)   XCENC  =       264.42849417
  PAW double counting   =      7693.53436011    -8335.25762889
  entropy T*S    EENTRO =         0.00000000
  eigenvalues    EBANDS =      -371.93145445
  atomic energy  EATOM  =      8345.61350795
  Solvation  Ediel_sol  =         0.00000000
  ---------------------------------------------------
  free energy    TOTEN  =       -12.64950179 eV

  energy without entropy =      -12.64950179  energy(sigma->0) =      -12.64950179


--------------------------------------------------------------------------------------------------------




----------------------------------------- Iteration    1(  28)  ---------------------------------------


    POTLOK:  cpu time    0.2941: real time    0.2942
    SETDIJ:  cpu time    0.0067: real time    0.0067
     EDDAV:  cpu time    0.6065: real time    0.6073
       DOS:  cpu time    0.0001: real time    0.0001
    CHARGE:  cpu time    0.0423: real time    0.0423
    MIXING:  cpu time    0.0262: real time    0.0262
    --------------------------------------------
      LOOP:  cpu time    0.9791: real time    0.9826

 eigenvalue-minimisations  :   296
 total energy-change (2. order) :-0.6619510E-03  (-0.2933074E-05)
 number of electron      65.9999878 magnetization      -0.0002750
 augmentation part       42.5028159 magnetization      -0.0000965

 Broyden mixing:
  rms(total) = 0.72809E-03    rms(broyden)= 0.72784E-03
  rms(prec ) = 0.98629E-03
  weight for this iteration     100.00

 eigenvalues of (default mixing * dielectric matrix)
  average eigenvalue GAMMA=   1.5013
  7.0382  4.8571  3.8000  2.3463  2.3463  1.3334  1.3334  1.4052  1.0219  1.0219
  0.8958  0.8958  0.4652  0.4652  0.7022  0.7022  0.6356  0.6356  0.4660  0.4660
  0.5708  0.5708  0.5551

 Free energy of the ion-electron system (eV)
  ---------------------------------------------------
  alpha Z        PSCENC =         3.91832704
  Ewald energy   TEWEN  =      4475.98146460
  -Hartree energ DENC   =    -12088.80905368
  -exchange      EXHF   =         0.00000000
  -V(xc)+E(xc)   XCENC  =       264.42480119
  PAW double counting   =      7693.45157572    -8335.15834932
  entropy T*S    EENTRO =         0.00000000
  eigenvalues    EBANDS =      -372.07243723
  atomic energy  EATOM  =      8345.61350795
  Solvation  Ediel_sol  =         0.00000000
  ---------------------------------------------------
  free energy    TOTEN  =       -12.65016375 eV

  energy without entropy =      -12.65016375  energy(sigma->0) =      -12.65016375


--------------------------------------------------------------------------------------------------------




----------------------------------------- Iteration    1(  29)  ---------------------------------------


    POTLOK:  cpu time    0.2942: real time    0.2943
    SETDIJ:  cpu time    0.0066: real time    0.0066
     EDDAV:  cpu time    0.5936: real time    0.5945
       DOS:  cpu time    0.0001: real time    0.0001
    CHARGE:  cpu time    0.0425: real time    0.0425
    MIXING:  cpu time    0.0284: real time    0.0284
    --------------------------------------------
      LOOP:  cpu time    0.9686: real time    0.9722

 eigenvalue-minimisations  :   288
 total energy-change (2. order) :-0.8450161E-03  (-0.4016079E-05)
 number of electron      65.9999878 magnetization      -0.0023142
 augmentation part       42.5029070 magnetization      -0.0025703

 Broyden mixing:
  rms(total) = 0.66150E-03    rms(broyden)= 0.66141E-03
  rms(prec ) = 0.78929E-03
  weight for this iteration     100.00

 eigenvalues of (default mixing * dielectric matrix)
  average eigenvalue GAMMA=   1.5342
  7.1187  5.0752  4.4003  2.4926  2.2737  1.7689  1.2493  1.2493  1.1245  1.1245
  0.9723  0.9723  0.4652  0.4652  0.7266  0.7266  0.6680  0.6680  0.6661  0.4660
  0.4660  0.5631  0.5589  0.5589

 Free energy of the ion-electron system (eV)
  ---------------------------------------------------
  alpha Z        PSCENC =         3.91832704
  Ewald energy   TEWEN  =      4475.98146460
  -Hartree energ DENC   =    -12088.70221458
  -exchange      EXHF   =         0.00000000
  -V(xc)+E(xc)   XCENC  =       264.42331640
  PAW double counting   =      7693.52937867    -8335.23689702
  entropy T*S    EENTRO =         0.00000000
  eigenvalues    EBANDS =      -372.17789181
  atomic energy  EATOM  =      8345.61350795
  Solvation  Ediel_sol  =         0.00000000
  ---------------------------------------------------
  free energy    TOTEN  =       -12.65100876 eV

  energy without entropy =      -12.65100876  energy(sigma->0) =      -12.65100876


--------------------------------------------------------------------------------------------------------




----------------------------------------- Iteration    1(  30)  ---------------------------------------


    POTLOK:  cpu time    0.2930: real time    0.2934
    SETDIJ:  cpu time    0.0066: real time    0.0066
     EDDAV:  cpu time    0.5433: real time    0.5492
       DOS:  cpu time    0.0001: real time    0.0001
    CHARGE:  cpu time    0.0426: real time    0.0426
    MIXING:  cpu time    0.0307: real time    0.0308
    --------------------------------------------
      LOOP:  cpu time    0.9195: real time    0.9287

 eigenvalue-minimisations  :   256
 total energy-change (2. order) :-0.1335800E-03  (-0.1364628E-05)
 number of electron      65.9999878 magnetization      -0.0017664
 augmentation part       42.5020514 magnetization      -0.0017361

 Broyden mixing:
  rms(total) = 0.38771E-03    rms(broyden)= 0.38759E-03
  rms(prec ) = 0.47711E-03
  weight for this iteration     100.00

 eigenvalues of (default mixing * dielectric matrix)
  average eigenvalue GAMMA=   1.5500
  7.0938  5.7954  4.3860  2.4420  2.4420  1.7450  1.5808  1.2779  1.2779  0.9855
  0.9855  0.9187  0.9187  0.4652  0.4652  0.7136  0.7136  0.6458  0.6458  0.4661
  0.4661  0.6353  0.5811  0.5519  0.5519

 Free energy of the ion-electron system (eV)
  ---------------------------------------------------
  alpha Z        PSCENC =         3.91832704
  Ewald energy   TEWEN  =      4475.98146460
  -Hartree energ DENC   =    -12088.68958579
  -exchange      EXHF   =         0.00000000
  -V(xc)+E(xc)   XCENC  =       264.42457573
  PAW double counting   =      7693.53887876    -8335.26071348
  entropy T*S    EENTRO =         0.00000000
  eigenvalues    EBANDS =      -372.17759714
  atomic energy  EATOM  =      8345.61350795
  Solvation  Ediel_sol  =         0.00000000
  ---------------------------------------------------
  free energy    TOTEN  =       -12.65114234 eV

  energy without entropy =      -12.65114234  energy(sigma->0) =      -12.65114234


--------------------------------------------------------------------------------------------------------




----------------------------------------- Iteration    1(  31)  ---------------------------------------


    POTLOK:  cpu time    0.2934: real time    0.2936
    SETDIJ:  cpu time    0.0067: real time    0.0067
     EDDAV:  cpu time    0.4063: real time    0.4069
       DOS:  cpu time    0.0001: real time    0.0001
    CHARGE:  cpu time    0.0422: real time    0.0422
    MIXING:  cpu time    0.0334: real time    0.0334
    --------------------------------------------
      LOOP:  cpu time    0.7854: real time    0.7887

 eigenvalue-minimisations  :   168
 total energy-change (2. order) :-0.3863656E-04  (-0.2247755E-06)
 number of electron      65.9999878 magnetization      -0.0006455
 augmentation part       42.5019532 magnetization      -0.0006004

 Broyden mixing:
  rms(total) = 0.26474E-03    rms(broyden)= 0.26471E-03
  rms(prec ) = 0.33700E-03
  weight for this iteration     100.00

 eigenvalues of (default mixing * dielectric matrix)
  average eigenvalue GAMMA=   1.5762
  7.0986  6.2943  4.4265  2.6955  2.2795  2.2795  1.4175  1.2764  1.2764  1.1518
  1.1518  0.9779  0.9779  0.4652  0.4652  0.7244  0.7244  0.7177  0.7177  0.6318
  0.6318  0.4661  0.4661  0.5678  0.5497  0.5497

 Free energy of the ion-electron system (eV)
  ---------------------------------------------------
  alpha Z        PSCENC =         3.91832704
  Ewald energy   TEWEN  =      4475.98146460
  -Hartree energ DENC   =    -12088.67632808
  -exchange      EXHF   =         0.00000000
  -V(xc)+E(xc)   XCENC  =       264.42437998
  PAW double counting   =      7693.57339050    -8335.29544017
  entropy T*S    EENTRO =         0.00000000
  eigenvalues    EBANDS =      -372.19048279
  atomic energy  EATOM  =      8345.61350795
  Solvation  Ediel_sol  =         0.00000000
  ---------------------------------------------------
  free energy    TOTEN  =       -12.65118098 eV

  energy without entropy =      -12.65118098  energy(sigma->0) =      -12.65118098


--------------------------------------------------------------------------------------------------------




----------------------------------------- Iteration    1(  32)  ---------------------------------------


    POTLOK:  cpu time    0.2929: real time    0.2931
    SETDIJ:  cpu time    0.0066: real time    0.0066
     EDDAV:  cpu time    0.5182: real time    0.5190
       DOS:  cpu time    0.0001: real time    0.0001
    CHARGE:  cpu time    0.0425: real time    0.0425
    MIXING:  cpu time    0.0354: real time    0.0354
    --------------------------------------------
      LOOP:  cpu time    0.8989: real time    0.9027

 eigenvalue-minimisations  :   232
 total energy-change (2. order) :-0.5864860E-04  (-0.5091882E-06)
 number of electron      65.9999878 magnetization       0.0004397
 augmentation part       42.5026011 magnetization       0.0004611

 Broyden mixing:
  rms(total) = 0.23500E-03    rms(broyden)= 0.23493E-03
  rms(prec ) = 0.27946E-03
  weight for this iteration     100.00

 eigenvalues of (default mixing * dielectric matrix)
  average eigenvalue GAMMA=   1.5913
  7.0246  7.0246  4.1368  3.2489  2.2530  2.2530  1.8323  1.2783  1.2783  0.9817
  0.9817  1.0679  1.0285  1.0285  0.4652  0.4652  0.7238  0.7238  0.6834  0.6834
  0.4661  0.4661  0.6099  0.6099  0.5717  0.5389  0.5389

 Free energy of the ion-electron system (eV)
  ---------------------------------------------------
  alpha Z        PSCENC =         3.91832704
  Ewald energy   TEWEN  =      4475.98146460
  -Hartree energ DENC   =    -12088.63338244
  -exchange      EXHF   =         0.00000000
  -V(xc)+E(xc)   XCENC  =       264.42316467
  PAW double counting   =      7693.53976607    -8335.25477846
  entropy T*S    EENTRO =         0.00000000
  eigenvalues    EBANDS =      -372.23930905
  atomic energy  EATOM  =      8345.61350795
  Solvation  Ediel_sol  =         0.00000000
  ---------------------------------------------------
  free energy    TOTEN  =       -12.65123963 eV

  energy without entropy =      -12.65123963  energy(sigma->0) =      -12.65123963


--------------------------------------------------------------------------------------------------------




----------------------------------------- Iteration    1(  33)  ---------------------------------------


    POTLOK:  cpu time    0.2931: real time    0.2933
    SETDIJ:  cpu time    0.0069: real time    0.0069
     EDDAV:  cpu time    0.4193: real time    0.4196
[...]


 spin component 1

 k-point     1 :       0.0000    0.0000    0.0000
  band No.  band energies     occupation 
      1      -8.4982      1.00000
      2      -7.1890      1.00000
      3      -7.1294      1.00000
      4      -6.7492      1.00000
      5      -6.5339      1.00000
      6      -6.4920      1.00000
      7      -6.2583      1.00000
      8      -6.1112      1.00000
      9      -5.9358      1.00000
     10      -5.8404      1.00000
     11      -5.8333      1.00000
     12      -5.8307      1.00000
     13      -5.7867      1.00000
     14      -5.6607      1.00000
     15      -5.6036      1.00000
     16      -5.3535      1.00000
     17      -5.3450      1.00000
     18      -5.2855      1.00000
     19      -5.2119      1.00000
     20      -5.1774      1.00000
     21      -5.1620      1.00000
     22      -5.1291      1.00000
     23      -5.1141      1.00000
     24      -5.0748      1.00000
     25      -5.0490      1.00000
     26      -5.0398      1.00000
     27      -5.0208      1.00000
     28      -4.9949      1.00000
     29      -4.8897      1.00000
     30      -4.8539      1.00000
     31      -4.7744      1.00000
     32      -4.7368      1.00000
     33      -4.5197      1.00000
     34      -3.0958      0.00000
     35      -2.7377      0.00000
     36      -2.2228      0.00000
     37      -2.1479      0.00000
     38      -0.9599      0.00000
     39      -0.6794      0.00000
     40      -0.6296      0.00000
     41      -0.5760      0.00000
     42      -0.2399      0.00000
     43      -0.0283      0.00000
     44       0.0910      0.00000
     45       0.4275      0.00000
     46       0.4482      0.00000
     47       0.4612      0.00000
     48       0.4876      0.00000

 spin component 2

 k-point     1 :       0.0000    0.0000    0.0000
  band No.  band energies     occupation 
      1      -8.4982      1.00000
      2      -7.1890      1.00000
      3      -7.1294      1.00000
      4      -6.7492      1.00000
      5      -6.5339      1.00000
      6      -6.4920      1.00000
      7      -6.2583      1.00000
      8      -6.1112      1.00000
      9      -5.9358      1.00000
     10      -5.8404      1.00000
     11      -5.8333      1.00000
     12      -5.8307      1.00000
     13      -5.7867      1.00000
     14      -5.6607      1.00000
     15      -5.6036      1.00000
     16      -5.3535      1.00000
     17      -5.3450      1.00000
     18      -5.2855      1.00000
     19      -5.2119      1.00000
     20      -5.1774      1.00000
     21      -5.1620      1.00000
     22      -5.1291      1.00000
     23      -5.1141      1.00000
     24      -5.0748      1.00000
     25      -5.0490      1.00000
     26      -5.0398      1.00000
     27      -5.0208      1.00000
     28      -4.9949      1.00000
     29      -4.8897      1.00000
     30      -4.8539      1.00000
     31      -4.7744      1.00000
     32      -4.7368      1.00000
     33      -4.5197      1.00000
     34      -3.0958      0.00000
     35      -2.7377      0.00000
     36      -2.2228      0.00000
     37      -2.1479      0.00000
     38      -0.9599      0.00000
     39      -0.6794      0.00000
     40      -0.6296      0.00000
     41      -0.5760      0.00000
     42      -0.2399      0.00000
     43      -0.0283      0.00000
     44       0.0910      0.00000
     45       0.4274      0.00000
     46       0.4482      0.00000
     47       0.4612      0.00000
     48       0.4876      0.00000


--------------------------------------------------------------------------------------------------------


 soft charge-density along one line, spin component           1
         0         1         2         3         4         5         6         7         8         9
 total charge-density along one line
 
 soft charge-density along one line, spin component           2
         0         1         2         3         4         5         6         7         8         9
 total charge-density along one line
 
 pseudopotential strength for first ion, spin component:           1
-10.241  -0.020   0.023   0.027  -0.002   0.799   0.016  -0.017
 -0.020 -10.241   0.018  -0.019  -0.032   0.016   0.799  -0.014
  0.023   0.018 -10.237  -0.010   0.002  -0.017  -0.014   0.796
  0.027  -0.019  -0.010 -10.239  -0.022  -0.021   0.015   0.008
 -0.002  -0.032   0.002  -0.022 -10.243   0.002   0.024  -0.002
  0.799   0.016  -0.017  -0.021   0.002   6.457  -0.010   0.011
  0.016   0.799  -0.014   0.015   0.024  -0.010   6.456   0.009
 -0.017  -0.014   0.796   0.008  -0.002   0.011   0.009   6.458
 -0.021   0.015   0.008   0.798   0.017   0.013  -0.010  -0.005
  0.002   0.024  -0.002   0.017   0.800  -0.001  -0.016   0.001
  0.006  -0.007  -0.001   0.006   0.001   0.001   0.000  -0.000
  0.010  -0.013  -0.002   0.011   0.002   0.002  -0.000  -0.001
  0.001   0.012   0.007   0.000   0.012   0.000  -0.006  -0.004
  0.000  -0.012   0.014  -0.001   0.000   0.000   0.006  -0.007
 -0.012   0.000  -0.001   0.012  -0.000   0.006   0.000  -0.000
  0.001   0.012   0.007  -0.000   0.013   0.001  -0.005  -0.002
 -0.000  -0.012   0.014  -0.001  -0.000   0.000   0.005  -0.005
 -0.012  -0.000  -0.001   0.012  -0.000   0.005   0.000  -0.000
 pseudopotential strength for first ion, spin component:           2
-10.241  -0.020   0.023   0.027  -0.002   0.799   0.016  -0.017
 -0.020 -10.241   0.018  -0.019  -0.032   0.016   0.799  -0.014
  0.023   0.018 -10.237  -0.010   0.002  -0.017  -0.014   0.796
  0.027  -0.019  -0.010 -10.239  -0.022  -0.021   0.015   0.008
 -0.002  -0.032   0.002  -0.022 -10.243   0.002   0.024  -0.002
  0.799   0.016  -0.017  -0.021   0.002   6.457  -0.010   0.011
  0.016   0.799  -0.014   0.015   0.024  -0.010   6.456   0.009
 -0.017  -0.014   0.796   0.008  -0.002   0.011   0.009   6.458
 -0.021   0.015   0.008   0.798   0.017   0.013  -0.010  -0.005
  0.002   0.024  -0.002   0.017   0.800  -0.001  -0.016   0.001
  0.006  -0.007  -0.001   0.006   0.001   0.001   0.000  -0.000
  0.010  -0.013  -0.002   0.011   0.002   0.002  -0.000  -0.001
  0.001   0.012   0.007   0.000   0.012   0.000  -0.006  -0.004
  0.000  -0.012   0.014  -0.001   0.000   0.000   0.006  -0.007
 -0.012   0.000  -0.001   0.012  -0.000   0.006   0.000  -0.000
  0.001   0.012   0.007  -0.000   0.013   0.001  -0.005  -0.002
 -0.000  -0.012   0.014  -0.001  -0.000   0.000   0.005  -0.005
 -0.012  -0.000  -0.001   0.012  -0.000   0.005   0.000  -0.000
 total augmentation occupancy for first ion, spin component:           1
  1.961  -0.008   0.005   0.003  -0.004  -0.009   0.005  -0.008  -0.003   0.002  -0.033  -0.006   0.014  -0.000   0.053  -0.001
 -0.008   1.958   0.006  -0.008  -0.011   0.005  -0.010  -0.004   0.005   0.008   0.020   0.002  -0.051   0.050  -0.000   0.022
  0.005   0.006   1.960  -0.000   0.003  -0.008  -0.004  -0.014   0.003  -0.003   0.011   0.002  -0.027  -0.045  -0.013   0.014
  0.003  -0.008  -0.000   1.961  -0.006  -0.003   0.005   0.003  -0.009   0.008  -0.033  -0.006   0.001  -0.016  -0.053   0.000
 -0.004  -0.011   0.003  -0.006   1.956   0.002   0.008  -0.003   0.008  -0.010  -0.015  -0.004  -0.042  -0.001  -0.007   0.023
 -0.009   0.005  -0.008  -0.003   0.002   0.007   0.000  -0.003  -0.002  -0.000   0.042  -0.002   0.008   0.002   0.016  -0.001
  0.005  -0.010  -0.004   0.005   0.008   0.000   0.006  -0.001   0.000   0.002  -0.039   0.005  -0.014   0.014   0.000   0.001
 -0.008  -0.004  -0.014   0.003  -0.003  -0.003  -0.001   0.005   0.002   0.000  -0.010  -0.000  -0.005  -0.009  -0.008   0.000
 -0.003   0.005   0.003  -0.009   0.008  -0.002   0.000   0.002   0.007   0.002   0.044  -0.002  -0.001  -0.008  -0.016  -0.000
  0.002   0.008  -0.003   0.008  -0.010  -0.000   0.002   0.000   0.002   0.005   0.014   0.001  -0.009   0.000  -0.005   0.000
 -0.033   0.020   0.011  -0.033  -0.015   0.042  -0.039  -0.010   0.044   0.014   1.686  -0.086   0.166  -0.161  -0.001  -0.021
 -0.006   0.002   0.002  -0.006  -0.004  -0.002   0.005  -0.000  -0.002   0.001  -0.086   0.008  -0.017   0.016   0.000   0.002
  0.014  -0.051  -0.027   0.001  -0.042   0.008  -0.014  -0.005  -0.001  -0.009   0.166  -0.017   0.064  -0.023   0.022  -0.006
 -0.000   0.050  -0.045  -0.016  -0.001   0.002   0.014  -0.009  -0.008   0.000  -0.161   0.016  -0.023   0.062   0.024   0.003
  0.053  -0.000  -0.013  -0.053  -0.007   0.016   0.000  -0.008  -0.016  -0.005  -0.001   0.000   0.022   0.024   0.077  -0.001
 -0.001   0.022   0.014   0.000   0.023  -0.001   0.001   0.000  -0.000   0.000  -0.021   0.002  -0.006   0.003  -0.001   0.001
 -0.000  -0.022   0.025   0.001   0.000   0.000  -0.001   0.000   0.001  -0.000   0.020  -0.002   0.003  -0.006  -0.001  -0.000
 -0.023  -0.000   0.001   0.023   0.001  -0.001  -0.000   0.001   0.001   0.000   0.000  -0.000  -0.001  -0.001  -0.005   0.000
 total augmentation occupancy for first ion, spin component:           2
  0.000  -0.000  -0.000  -0.000   0.000   0.000   0.000   0.000   0.000   0.000  -0.000  -0.000   0.000   0.000  -0.000  -0.000
 -0.000   0.000  -0.000  -0.000   0.000   0.000   0.000  -0.000   0.000   0.000  -0.000   0.000   0.000  -0.000   0.000  -0.000
 -0.000  -0.000  -0.000   0.000   0.000   0.000  -0.000  -0.000   0.000   0.000   0.000  -0.000  -0.000  -0.000   0.000   0.000
 -0.000  -0.000   0.000   0.000   0.000   0.000   0.000   0.000   0.000  -0.000  -0.000  -0.000   0.000   0.000   0.000  -0.000
  0.000   0.000   0.000   0.000  -0.000   0.000  -0.000   0.000  -0.000  -0.000   0.000  -0.000  -0.000   0.000  -0.000   0.000
  0.000   0.000   0.000   0.000   0.000   0.000   0.000  -0.000  -0.000  -0.000   0.000   0.000   0.000  -0.000   0.000  -0.000
  0.000   0.000  -0.000   0.000  -0.000   0.000  -0.000   0.000   0.000  -0.000   0.000  -0.000  -0.000   0.000  -0.000   0.000
  0.000  -0.000  -0.000   0.000   0.000  -0.000   0.000   0.000   0.000  -0.000  -0.000   0.000   0.000   0.000  -0.000  -0.000
  0.000   0.000   0.000   0.000  -0.000  -0.000   0.000   0.000  -0.000  -0.000   0.000  -0.000  -0.000  -0.000  -0.000   0.000
  0.000   0.000   0.000  -0.000  -0.000  -0.000  -0.000  -0.000  -0.000   0.000   0.000   0.000   0.000  -0.000   0.000  -0.000
 -0.000  -0.000   0.000  -0.000   0.000   0.000   0.000  -0.000   0.000   0.000   0.000   0.000  -0.000  -0.000   0.000   0.000
 -0.000   0.000  -0.000  -0.000  -0.000   0.000  -0.000   0.000  -0.000   0.000   0.000  -0.000   0.000   0.000   0.000  -0.000
  0.000   0.000  -0.000   0.000  -0.000   0.000  -0.000   0.000  -0.000   0.000  -0.000   0.000   0.000   0.000   0.000  -0.000
  0.000  -0.000  -0.000   0.000   0.000  -0.000   0.000   0.000  -0.000  -0.000  -0.000   0.000   0.000  -0.000   0.000  -0.000
 -0.000   0.000   0.000   0.000  -0.000   0.000  -0.000  -0.000  -0.000   0.000   0.000   0.000   0.000   0.000   0.000  -0.000
 -0.000  -0.000   0.000  -0.000   0.000  -0.000   0.000  -0.000   0.000  -0.000   0.000  -0.000  -0.000  -0.000  -0.000   0.000
 -0.000   0.000   0.000  -0.000  -0.000   0.000  -0.000  -0.000   0.000   0.000   0.000  -0.000  -0.000  -0.000   0.000   0.000
  0.000  -0.000  -0.000  -0.000   0.000  -0.000   0.000   0.000   0.000  -0.000  -0.000  -0.000  -0.000   0.000   0.000   0.000


------------------------ aborting loop because EDIFF is reached ----------------------------------------


 


 total charge     
 
# of ion     s       p       d       tot
----------------------------------------
  1        0.493   0.104   9.299   9.897
  2        0.454   0.134   9.315   9.903
  3        0.477   0.073   9.326   9.876
  4        0.453   0.133   9.315   9.902
  5        0.477   0.073   9.326   9.876
  6        0.455   0.296   9.220   9.972
------------------------------------------------
tot        2.810   0.814  55.803  59.426
 


 magnetization (x)
 
# of ion     s       p       d       tot
----------------------------------------
  1        0.000   0.000   0.000   0.000
  2        0.000   0.000   0.000   0.000
  3        0.000   0.000   0.000   0.000
  4        0.000   0.000   0.000   0.000
  5        0.000   0.000   0.000   0.000
  6        0.000   0.000   0.000   0.000
------------------------------------------------
tot        0.000   0.000   0.000   0.000
 
    CHARGE:  cpu time    0.0425: real time    0.0425
    FORLOC:  cpu time    0.0078: real time    0.0078
    FORNL :  cpu time    0.1744: real time    0.1744
    STRESS:  cpu time    0.1905: real time    0.1909
    FORCOR:  cpu time    0.2854: real time    0.2855
    FORHAR:  cpu time    0.0364: real time    0.0365
    MIXING:  cpu time    0.0080: real time    0.0080
    OFIELD:  cpu time    0.0001: real time    0.0001

  FORCE on cell =-STRESS in cart. coord.  units (eV):
  Direction    XX          YY          ZZ          XY          YZ          ZX
  --------------------------------------------------------------------------------------
  Alpha Z     3.91833     3.91833     3.91833
  Ewald    2079.91992  1326.50405  1069.52171  1406.19994 -1447.61085  1516.07898
  Hartree  4539.64837  3878.40370  3670.43772  1155.49589 -1158.64606  1244.33291
  E(xc)    -384.84989  -384.98517  -385.10900     0.58568    -0.74696     0.63643
  Local   -7188.80578 -5778.23150 -5315.00995 -2552.59561  2596.49548 -2750.54850
  n-local  -151.73525  -151.06104  -151.03206    -0.31191    -0.19254    -0.33450
  augment   558.05617   559.75791   560.63844    -4.52038     5.17685    -4.90489
  Kinetic   542.33502   544.21511   545.16858    -4.85927     5.50797    -5.26853
  Fock        0.00000     0.00000     0.00000     0.00000     0.00000     0.00000
  -------------------------------------------------------------------------------------
  Total      -1.51311    -1.47863    -1.46623    -0.00566    -0.01610    -0.00811
  in kB      -0.36080    -0.35258    -0.34962    -0.00135    -0.00384    -0.00193
  external pressure =       -0.35 kB  Pullay stress =        0.00 kB


 VOLUME and BASIS-vectors are now :
 -----------------------------------------------------------------------------
  energy-cutoff  :      295.45
  volume of cell :     6719.15
      direct lattice vectors                 reciprocal lattice vectors
    18.869976000  0.000000000  0.000000000     0.052994238  0.000000000  0.000000000
     0.000000000 18.869976000  0.000000000     0.000000000  0.052994238  0.000000000
     0.000000000  0.000000000 18.869976000     0.000000000  0.000000000  0.052994238

  length of vectors
    18.869976000 18.869976000 18.869976000     0.052994238  0.052994238  0.052994238


 FORCES acting on ions
    electron-ion (+dipol)            ewald-force                    non-local-force                 convergence-correction
 -----------------------------------------------------------------------------------------------
   -.447E+01 0.574E+03 -.550E+03   0.451E+01 -.567E+03 0.544E+03   0.291E-02 -.655E+01 0.643E+01   -.407E-01 -.137E-01 0.707E-01
   0.610E+03 0.513E+03 0.271E+02   -.602E+03 -.505E+03 -.275E+02   -.806E+01 -.770E+01 0.443E+00   0.161E-01 -.396E-01 -.178E-01
   -.410E+03 -.627E+03 0.235E+03   0.405E+03 0.617E+03 -.230E+03   0.519E+01 0.102E+02 -.487E+01   -.121E-01 -.258E-01 -.446E-01
   -.629E+03 0.927E+01 -.489E+03   0.621E+03 -.819E+01 0.482E+03   0.846E+01 -.111E+01 0.722E+01   -.193E-01 0.402E-01 0.256E-01
   0.426E+03 -.270E+03 0.601E+03   -.421E+03 0.264E+03 -.592E+03   -.548E+01 0.546E+01 -.969E+01   0.577E-01 0.174E-01 -.881E-02
   0.795E+01 -.200E+03 0.176E+03   -.791E+01 0.200E+03 -.177E+03   -.407E-01 -.430E+00 0.502E+00   -.425E-02 0.144E-01 -.248E-01
 -----------------------------------------------------------------------------------------------
   -.643E-01 0.198E+00 -.793E-01   0.000E+00 -.114E-12 -.284E-13   0.744E-01 -.186E+00 0.356E-01   -.244E-02 -.712E-02 0.250E-03
 
 
 POSITION                                       TOTAL-FORCE (eV/Angst)
 -----------------------------------------------------------------------------------
      9.44989      7.94475     10.85072        -0.001378     -0.000945      0.016332
      7.70781      8.15358      9.21247         0.000031     -0.003315      0.000092
     11.09875     11.31709      9.06799        -0.004927      0.006247     -0.012263
     11.19859      9.58409     10.67877        -0.007961      0.010292      0.006530
      7.72921      9.89763      7.61199         0.018649      0.003365     -0.010423
      9.42567      9.71279      9.18798        -0.004415     -0.015644     -0.000268
 -----------------------------------------------------------------------------------
    total drift:                                0.007599      0.004426     -0.043431


--------------------------------------------------------------------------------------------------------



  FREE ENERGIE OF THE ION-ELECTRON SYSTEM (eV)
  ---------------------------------------------------
  free  energy   TOTEN  =       -12.65785720 eV

  energy  without entropy=      -12.65785720  energy(sigma->0) =      -12.65785720
 
 d Force = 0.1764438E-03[ 0.120E-03, 0.233E-03]  d Energy = 0.1733365E-03 0.311E-05
 d Force = 0.1297080E+01[ 0.130E+01, 0.130E+01]  d Ewald  = 0.1297080E+01-0.775E-06


--------------------------------------------------------------------------------------------------------


    POTLOK:  cpu time    0.2966: real time    0.2969


--------------------------------------------------------------------------------------------------------


 Conjugate gradient step on ions:
 trial-energy change:   -0.000173  1 .order   -0.000176   -0.000233   -0.000120
  (g-gl).g = 0.741E-04      g.g   = 0.136E-03  gl.gl    = 0.583E-03
 g(Force)  = 0.136E-03   g(Stress)= 0.000E+00 ortho     = 0.171E-04
 gamma     =   0.12707
 trial     =   1.68083
 opt step  =   3.46350  (harmonic =   3.46350) maximal distance =0.00479316
 next E    =   -12.657924   (d E  =  -0.00024)


--------------------------------------------------------------------------------------------------------


  
 reached required accuracy - stopping structural energy minimisation
     LOOP+:  cpu time    4.5031: real time    4.5296
    4ORBIT:  cpu time    0.0000: real time    0.0000
 


 total charge     
 
# of ion     s       p       d       tot
----------------------------------------
  1        0.493   0.104   9.299   9.897
  2        0.454   0.134   9.315   9.903
  3        0.477   0.073   9.326   9.876
  4        0.453   0.133   9.315   9.902
  5        0.477   0.073   9.326   9.876
  6        0.455   0.296   9.220   9.972
------------------------------------------------
tot        2.810   0.814  55.803  59.426
 


 magnetization (x)
 
# of ion     s       p       d       tot
----------------------------------------
  1        0.000   0.000   0.000   0.000
  2        0.000   0.000   0.000   0.000
  3        0.000   0.000   0.000   0.000
  4        0.000   0.000   0.000   0.000
  5        0.000   0.000   0.000   0.000
  6        0.000   0.000   0.000   0.000
------------------------------------------------
tot        0.000   0.000   0.000   0.000
 

 total amount of memory used by VASP on root node    62251. kBytes
========================================================================

   base      :      30000. kBytes
   nonl-proj :       1550. kBytes
   fftplans  :       7971. kBytes
   grid      :      20231. kBytes
   one-center:         15. kBytes
   wavefun   :       2484. kBytes
 
  
  
 General timing and accounting informations for this job:
 ========================================================
  
                  Total CPU time used (sec):      147.935
                            User time (sec):      145.186
                          System time (sec):        2.749
                         Elapsed time (sec):      154.298
  
                   Maximum memory used (kb):      102616.
                   Average memory used (kb):           0.
  
                          Minor page faults:       291534
                          Major page faults:            2
                 Voluntary context switches:         3378
