 vasp.5.4.1 05Feb16 (build Apr 11 2020 03:28:46) gamma-only                     
  
 executed on           IFC91_ompi date 2022.05.26  00:14:09
 running on   24 total cores
 distrk:  each k-point on   24 cores,    1 groups
 distr:  one band on NCORES_PER_BAND=   6 cores,    4 groups


--------------------------------------------------------------------------------------------------------


 INCAR:
 POTCAR:    PAW_PBE Cu 22Jun2005                  
 POTCAR:    PAW_PBE Cu 22Jun2005                  
   VRHFIN =Cu: d10 p1                                                           
   LEXCH  = PE                                                                  
   EATOM  =  1390.9808 eV,  102.2342 Ry                                         
                                                                                
   TITEL  = PAW_PBE Cu 22Jun2005                                                
   LULTRA =        F    use ultrasoft PP ?                                      
   IUNSCR =        1    unscreen: 0-lin 1-nonlin 2-no                           
   RPACOR =    2.000    partial core radius                                     
   POMASS =   63.546; ZVAL   =   11.000    mass and valenz                      
   RCORE  =    2.300    outmost cutoff radius                                   
   RWIGS  =    2.200; RWIGS  =    1.164    wigner-seitz radius (au A)           
   ENMAX  =  295.446; ENMIN  =  221.585 eV                                      
   ICORE  =        3    local potential                                         
   LCOR   =        T    correct aug charges                                     
   LPAW   =        T    paw PP                                                  
   EAUG   =  586.980                                                            
   DEXC   =    0.000                                                            
   RMAX   =    2.344    core radius for proj-oper                               
   RAUG   =    1.300    factor for augmentation sphere                          
   RDEP   =    2.302    radius for radial grids                                 
   RDEPT  =    1.771    core radius for aug-charge                              
                                                                                
   Atomic configuration                                                         
    9 entries                                                                   
     n  l   j            E        occ.                                          
     1  0  0.50     -8850.2468   2.0000                                         
     2  0  0.50     -1062.3498   2.0000                                         
     2  1  1.50      -916.8226   6.0000                                         
     3  0  0.50      -114.6929   2.0000                                         
     3  1  1.50       -72.1325   6.0000                                         
     3  2  2.50        -5.0394  10.0000                                         
     4  0  0.50        -4.6097   1.0000                                         
     4  1  0.50        -4.0817   0.0000                                         
     4  3  2.50        -1.3606   0.0000                                         
   Description                                                                  
     l       E           TYP  RCUT    TYP  RCUT                                 
     2     -5.0393973     23  2.200                                             
     2     10.8846608     23  2.200                                             
     0     -4.6097109     23  2.200                                             
     0      8.2520465     23  2.200                                             
     1     -2.7211652     23  2.200                                             
     1     21.7055443     23  2.200                                             
     3      2.7211652     23  2.300                                             
  local pseudopotential read in
  partial core-charges read in
  partial kinetic energy density read in
  atomic valenz-charges read in
  non local Contribution for L=           2  read in
    real space projection operators read in
  non local Contribution for L=           2  read in
    real space projection operators read in
  non local Contribution for L=           0  read in
    real space projection operators read in
  non local Contribution for L=           0  read in
    real space projection operators read in
  non local Contribution for L=           1  read in
    real space projection operators read in
  non local Contribution for L=           1  read in
    real space projection operators read in
    PAW grid and wavefunctions read in
 
   number of l-projection  operators is LMAX  =           6
   number of lm-projection operators is LMMAX =          18
 
  PAW_PBE Cu 22Jun2005                  :
 energy of atom  1       EATOM=-1390.9808
 kinetic energy error for atom=    0.0452 (will be added to EATOM!!)
 
 
 POSCAR: Unknown Structure <s> Cu </s>           
  positions in direct lattice
  velocities in cartesian coordinates
 exchange correlation table for  LEXCH =        8
   RHO(1)=    0.500       N(1)  =     2000
   RHO(2)=  100.500       N(2)  =     4000
 


--------------------------------------------------------------------------------------------------------


 ion  position               nearest neighbor table
   1  0.245  0.192  0.248-   2 2.38   6 2.39   3 2.46   5 2.46   4 2.47
   2  0.188  0.224  0.203-   1 2.38   3 2.39   5 2.39
   3  0.262  0.251  0.194-   2 2.39   7 2.40   1 2.46   4 2.46   5 2.46
   4  0.298  0.252  0.268-   7 2.39   6 2.39   3 2.46   5 2.47   1 2.47
   5  0.218  0.269  0.261-   7 2.38   6 2.39   2 2.39   1 2.46   3 2.46   4 2.47
   6  0.246  0.224  0.321-   1 2.39   4 2.39   5 2.39
   7  0.273  0.319  0.235-   5 2.38   4 2.39   3 2.40
 

IMPORTANT INFORMATION: All symmetrisations will be switched off!
NOSYMM: (Re-)initialisation of all symmetry stuff for point group C_1.

 
 
 KPOINTS: Gamma-point only                        
  k-points in reciprocal lattice
Space group operators:
 irot       det(A)        alpha          n_x          n_y          n_z        tau_x        tau_y        tau_z
    1     1.000000     0.000000     1.000000     0.000000     0.000000     0.000000     0.000000     0.000000


--------------------------------------------------------------------------------------------------------




 Dimension of arrays:
   k-points           NKPTS =      1   k-points in BZ     NKDIM =      1   number of bands    NBANDS=     60
   number of dos      NEDOS =    301   number of ions     NIONS =      7
   non local maximal  LDIM  =      6   non local SUM 2l+1 LMDIM =     18
   total plane-waves  NPLWV = ******
   max r-space proj   IRMAX =      1   max aug-charges    IRDMAX=   2345
   dimension x,y,z NGX =   126 NGY =  126 NGZ =  126
   dimension x,y,z NGXF=   252 NGYF=  252 NGZF=  252
   support grid    NGXF=   252 NGYF=  252 NGZF=  252
   ions per type =               7
 NGX,Y,Z   is equivalent  to a cutoff of   6.98,  6.98,  6.98 a.u.
 NGXF,Y,Z  is equivalent  to a cutoff of  13.96, 13.96, 13.96 a.u.


 I would recommend the setting:
   dimension x,y,z NGX =   126 NGY =  126 NGZ =  126
 SYSTEM =  unknown system                          
 POSCAR =  Unknown Structure <s> Cu </s>           

 Startparameter for this run:
   NWRITE =      2    write-flag & timer
   PREC   = normal    normal or accurate (medium, high low for compatibility)
   ISTART =      0    job   : 0-new  1-cont  2-samecut
   ICHARG =      2    charge: 1-file 2-atom 10-const
   ISPIN  =      2    spin polarized calculation?
   LNONCOLLINEAR =      F non collinear calculations
   LSORBIT =      F    spin-orbit coupling
   INIWAV =      1    electr: 0-lowe 1-rand  2-diag
   LASPH  =      F    aspherical Exc in radial PAW
   METAGGA=      F    non-selfconsistent MetaGGA calc.

 Electronic Relaxation 1
   ENCUT  =  295.4 eV  21.71 Ry    4.66 a.u.  42.05 42.05 42.05*2*pi/ulx,y,z
   ENINI  =  295.4     initial cutoff
   ENAUG  =  587.0 eV  augmentation charge cutoff
   NELM   =     60;   NELMIN=  2; NELMDL=  0     # of ELM steps 
   EDIFF  = 0.1E-05   stopping-criterion for ELM
   LREAL  =      F    real-space projection
   NLSPLINE    = F    spline interpolate recip. space projectors
   LCOMPAT=      F    compatible to vasp.4.4
   GGA_COMPAT  = T    GGA compatible to vasp.4.4-vasp.4.6
   LMAXPAW     = -100 max onsite density
   LMAXMIX     =    2 max onsite mixed and CHGCAR
   VOSKOWN=      0    Vosko Wilk Nusair interpolation
   ROPT   =    0.00000
 Ionic relaxation
   EDIFFG = -.3E-01   stopping-criterion for IOM
   NSW    =   1000    number of steps for IOM
   NBLOCK =      1;   KBLOCK =   1000    inner block; outer block 
   IBRION =      2    ionic relax: 0-MD 1-quasi-New 2-CG
   NFREE  =      1    steps in history (QN), initial steepest desc. (CG)
   ISIF   =      2    stress and relaxation
   IWAVPR =     11    prediction:  0-non 1-charg 2-wave 3-comb
   ISYM   =      0    0-nonsym 1-usesym 2-fastsym
   LCORR  =      T    Harris-Foulkes like correction to forces

   POTIM  = 0.5000    time-step for ionic-motion
   TEIN   =    0.0    initial temperature
   TEBEG  =    0.0;   TEEND  =   0.0 temperature during run
   SMASS  =  -3.00    Nose mass-parameter (am)
   estimated Nose-frequenzy (Omega)   =  0.10E-29 period in steps =****** mass=  -0.206E-25a.u.
   SCALEE = 1.0000    scale energy and forces
   NPACO  =    256;   APACO  = 16.0  distance and # of slots for P.C.
   PSTRESS=    0.0 pullay stress

  Mass of Ions in am
   POMASS =  63.55
  Ionic Valenz
   ZVAL   =  11.00
  Atomic Wigner-Seitz radii
   RWIGS  =  -1.00
  virtual crystal weights 
   VCA    =   1.00
   NELECT =      77.0000    total number of electrons
   NUPDOWN=      -1.0000    fix difference up-down

 DOS related values:
   EMIN   =  10.00;   EMAX   =-10.00  energy-range for DOS
   EFERMI =   0.00
   ISMEAR =     0;   SIGMA  =   0.00  broadening in eV -4-tet -1-fermi 0-gaus

 Electronic relaxation 2 (details)
   IALGO  =     38    algorithm
   LDIAG  =      T    sub-space diagonalisation (order eigenvalues)
   LSUBROT=      F    optimize rotation matrix (better conditioning)
   TURBO    =      0    0=normal 1=particle mesh
   IRESTART =      0    0=no restart 2=restart with 2 vectors
   NREBOOT  =      0    no. of reboots
   NMIN     =      0    reboot dimension
   EREF     =   0.00    reference energy to select bands
   IMIX   =      4    mixing-type and parameters
     AMIX     =   0.40;   BMIX     =  1.00
     AMIX_MAG =   1.60;   BMIX_MAG =  1.00
     AMIN     =   0.10
     WC   =   100.;   INIMIX=   1;  MIXPRE=   1;  MAXMIX= -45

 Intra band minimization:
   WEIMIN = 0.0010     energy-eigenvalue tresh-hold
   EBREAK =  0.42E-08  absolut break condition
   DEPER  =   0.30     relativ break condition  

   TIME   =   0.40     timestep for ELM

  volume/ion in A,a.u.               =    3857.14     26029.28
  Fermi-wavevector in a.u.,A,eV,Ry     =   0.232158  0.438715  0.733318  0.053897
  Thomas-Fermi vector in A             =   1.027415
 
 Write flags
   LWAVE  =      F    write WAVECAR
   LCHARG =      F    write CHGCAR
   LVTOT  =      F    write LOCPOT, total local potential
   LVHAR  =      F    write LOCPOT, Hartree potential only
   LELF   =      F    write electronic localiz. function (ELF)
   LORBIT =     11    0 simple, 1 ext, 2 COOP (PROOUT)


 Dipole corrections
   LMONO  =      F    monopole corrections only (constant potential shift)
   LDIPOL =      F    correct potential (dipole corrections)
   IDIPOL =      0    1-x, 2-y, 3-z, 4-all directions 
   EPSILON=  1.0000000 bulk dielectric constant

 Exchange correlation treatment:
   GGA     =    PE    GGA type
   LEXCH   =     8    internal setting for exchange type
   VOSKOWN=      0    Vosko Wilk Nusair interpolation
   LHFCALC =     F    Hartree Fock is set to
   LHFONE  =     F    Hartree Fock one center treatment
   AEXX    =    0.0000 exact exchange contribution

 Linear response parameters
   LEPSILON=     F    determine dielectric tensor
   LRPA    =     F    only Hartree local field effects (RPA)
   LNABLA  =     F    use nabla operator in PAW spheres
   LVEL    =     F    velocity operator in full k-point grid
   LINTERFAST=   F  fast interpolation
   KINTER  =     0    interpolate to denser k-point grid
   CSHIFT  =0.1000    complex shift for real part using Kramers Kronig
   OMEGAMAX=  -1.0    maximum frequency
   DEG_THRESHOLD= 0.2000000E-02 threshold for treating states as degnerate
   RTIME   =    0.100 relaxation time in fs

 Orbital magnetization related:
   ORBITALMAG=     F  switch on orbital magnetization
   LCHIMAG   =     F  perturbation theory with respect to B field
   DQ        =  0.001000  dq finite difference perturbation B field



--------------------------------------------------------------------------------------------------------


 conjugate gradient relaxation of ions
 charge density and potential will be updated during run
 spin polarized calculation
 Variant of blocked Davidson
 Davidson routine will perform the subspace rotation
 perform sub-space diagonalisation
    after iterative eigenvector-optimisation
 modified Broyden-mixing scheme, WC =      100.0
 initial mixing is a Kerker type mixing with AMIX =  0.4000 and BMIX =      1.0000
 Hartree-type preconditioning will be used
 using additional bands           21
 reciprocal scheme for non local part
 use partial core corrections
 calculate Harris-corrections to forces 
   (improved forces if not selfconsistent)
 use gradient corrections 
 use of overlap-Matrix (Vanderbilt PP)
 Gauss-broadening in eV      SIGMA  =   0.00


--------------------------------------------------------------------------------------------------------


  energy-cutoff  :      295.45
  volume of cell :    27000.00
      direct lattice vectors                 reciprocal lattice vectors
    30.000000000  0.000000000  0.000000000     0.033333333  0.000000000  0.000000000
     0.000000000 30.000000000  0.000000000     0.000000000  0.033333333  0.000000000
     0.000000000  0.000000000 30.000000000     0.000000000  0.000000000  0.033333333

  length of vectors
    30.000000000 30.000000000 30.000000000     0.033333333  0.033333333  0.033333333


 
 k-points in units of 2pi/SCALE and weight: Gamma-point only                        
   0.00000000  0.00000000  0.00000000       1.000
 
 k-points in reciprocal lattice and weights: Gamma-point only                        
   0.00000000  0.00000000  0.00000000       1.000
 
 position of ions in fractional coordinates (direct lattice) 
   0.24496746  0.19226639  0.24828346
   0.18795721  0.22366360  0.20279684
   0.26221651  0.25133869  0.19430740
   0.29838727  0.25176542  0.26791756
   0.21819400  0.26855439  0.26147779
   0.24623655  0.22390831  0.32139587
   0.27295036  0.31941258  0.23473045
 
 position of ions in cartesian coordinates  (Angst):
   7.34902390  5.76799157  7.44850389
   5.63871638  6.70990808  6.08390535
   7.86649544  7.54016082  5.82922187
   8.95161822  7.55296258  8.03752682
   6.54581996  8.05663160  7.84433385
   7.38709653  6.71724922  9.64187600
   8.18851094  9.58237750  7.04191360
 


--------------------------------------------------------------------------------------------------------


 use parallel FFT for wavefunctions z direction half grid
 k-point  1 :   0.0000 0.0000 0.0000  plane waves:  155509

 maximum and minimum number of plane-waves per node :     25930    25903

 maximum number of plane-waves:    155509
 maximum index in each direction: 
   IXMAX=   42   IYMAX=   42   IZMAX=   42
   IXMIN=  -42   IYMIN=  -42   IZMIN=    0

 WARNING: aliasing errors must be expected set NGX to 170 to avoid them
 WARNING: aliasing errors must be expected set NGY to 170 to avoid them
 WARNING: aliasing errors must be expected set NGZ to 170 to avoid them
 aliasing errors are usually negligible using standard VASP settings
 and one can safely disregard these warnings

 parallel 3D FFT for wavefunctions:
    minimum data exchange during FFTs selected (reduces bandwidth)
 parallel 3D FFT for charge:
    minimum data exchange during FFTs selected (reduces bandwidth)


 total amount of memory used by VASP on root node   157062. kBytes
========================================================================

   base      :      30000. kBytes
   nonl-proj :       6631. kBytes
   fftplans  :      30597. kBytes
   grid      :      77361. kBytes
   one-center:         31. kBytes
   wavefun   :      12442. kBytes
 
     INWAV:  cpu time    0.0000: real time    0.0000
 Broyden mixing: mesh for mixing (old mesh)
   NGX = 85   NGY = 85   NGZ = 85
  (NGX  =252   NGY  =252   NGZ  =252)
  gives a total of 614125 points

 initial charge density was supplied:
 charge density of overlapping atoms calculated
 number of electron      77.0000000 magnetization      21.0000000
 keeping initial charge density in first step


--------------------------------------------------------------------------------------------------------


 Maximum index for augmentation-charges          194 (set IRDMAX)


--------------------------------------------------------------------------------------------------------


 First call to EWALD:  gamma=   0.059
 Maximum number of real-space cells 3x 3x 3
 Maximum number of reciprocal cells 3x 3x 3

 FEWALD executed in parallel
    FEWALD:  cpu time    0.0019: real time    0.0019


----------------------------------------- Iteration    1(   1)  ---------------------------------------


    POTLOK:  cpu time    1.3813: real time    1.3822
    SETDIJ:  cpu time    0.0149: real time    0.0149
     EDDAV:  cpu time    4.7852: real time    4.7898
       DOS:  cpu time    0.0001: real time    0.0001
    --------------------------------------------
      LOOP:  cpu time    6.1854: real time    6.2082

 eigenvalue-minimisations  :   272
 total energy-change (2. order) : 0.4480363E+03  (-0.7975233E+03)
 number of electron      77.0000000 magnetization      21.0000000
 augmentation part       77.0000000 magnetization      21.0000000

 Free energy of the ion-electron system (eV)
  ---------------------------------------------------
  alpha Z        PSCENC =         1.32722496
  Ewald energy   TEWEN  =      9445.10722246
  -Hartree energ DENC   =    -18305.08098954
  -exchange      EXHF   =         0.00000000
  -V(xc)+E(xc)   XCENC  =       319.81938405
  PAW double counting   =      8590.52025862    -9330.27113800
  entropy T*S    EENTRO =        -0.00000000
  eigenvalues    EBANDS =        -9.93475040
  atomic energy  EATOM  =      9736.54909260
  Solvation  Ediel_sol  =         0.00000000
  ---------------------------------------------------
  free energy    TOTEN  =       448.03630475 eV

  energy without entropy =      448.03630475  energy(sigma->0) =      448.03630475


--------------------------------------------------------------------------------------------------------




----------------------------------------- Iteration    1(   2)  ---------------------------------------


     EDDAV:  cpu time    7.5368: real time    7.5441
       DOS:  cpu time    0.0001: real time    0.0001
    --------------------------------------------
      LOOP:  cpu time    7.5394: real time    7.5494

 eigenvalue-minimisations  :   480
 total energy-change (2. order) :-0.2511058E+03  (-0.2140470E+03)
 number of electron      77.0000000 magnetization      21.0000000
 augmentation part       77.0000000 magnetization      21.0000000

 Free energy of the ion-electron system (eV)
  ---------------------------------------------------
  alpha Z        PSCENC =         1.32722496
  Ewald energy   TEWEN  =      9445.10722246
  -Hartree energ DENC   =    -18305.08098954
  -exchange      EXHF   =         0.00000000
  -V(xc)+E(xc)   XCENC  =       319.81938405
  PAW double counting   =      8590.52025862    -9330.27113800
  entropy T*S    EENTRO =         0.00000000
  eigenvalues    EBANDS =      -261.04051441
  atomic energy  EATOM  =      9736.54909260
  Solvation  Ediel_sol  =         0.00000000
  ---------------------------------------------------
  free energy    TOTEN  =       196.93054073 eV

  energy without entropy =      196.93054073  energy(sigma->0) =      196.93054073


--------------------------------------------------------------------------------------------------------




----------------------------------------- Iteration    1(   3)  ---------------------------------------


     EDDAV:  cpu time    6.1460: real time    6.1519
       DOS:  cpu time    0.0001: real time    0.0001
    --------------------------------------------
      LOOP:  cpu time    6.1500: real time    6.1587

 eigenvalue-minimisations  :   376
 total energy-change (2. order) :-0.1684720E+03  (-0.1593165E+03)
 number of electron      77.0000000 magnetization      21.0000000
 augmentation part       77.0000000 magnetization      21.0000000

 Free energy of the ion-electron system (eV)
  ---------------------------------------------------
  alpha Z        PSCENC =         1.32722496
  Ewald energy   TEWEN  =      9445.10722246
  -Hartree energ DENC   =    -18305.08098954
  -exchange      EXHF   =         0.00000000
  -V(xc)+E(xc)   XCENC  =       319.81938405
  PAW double counting   =      8590.52025862    -9330.27113800
  entropy T*S    EENTRO =         0.00000000
  eigenvalues    EBANDS =      -429.51254692
  atomic energy  EATOM  =      9736.54909260
  Solvation  Ediel_sol  =         0.00000000
  ---------------------------------------------------
  free energy    TOTEN  =        28.45850823 eV

  energy without entropy =       28.45850823  energy(sigma->0) =       28.45850823


--------------------------------------------------------------------------------------------------------




----------------------------------------- Iteration    1(   4)  ---------------------------------------


     EDDAV:  cpu time    5.8369: real time    5.8416
       DOS:  cpu time    0.0001: real time    0.0001
    --------------------------------------------
      LOOP:  cpu time    5.8408: real time    5.8484

 eigenvalue-minimisations  :   352
 total energy-change (2. order) :-0.3445671E+02  (-0.3052442E+02)
 number of electron      77.0000000 magnetization      21.0000000
 augmentation part       77.0000000 magnetization      21.0000000

 Free energy of the ion-electron system (eV)
  ---------------------------------------------------
  alpha Z        PSCENC =         1.32722496
  Ewald energy   TEWEN  =      9445.10722246
  -Hartree energ DENC   =    -18305.08098954
  -exchange      EXHF   =         0.00000000
  -V(xc)+E(xc)   XCENC  =       319.81938405
  PAW double counting   =      8590.52025862    -9330.27113800
  entropy T*S    EENTRO =         0.00000000
  eigenvalues    EBANDS =      -463.96925791
  atomic energy  EATOM  =      9736.54909260
  Solvation  Ediel_sol  =         0.00000000
  ---------------------------------------------------
  free energy    TOTEN  =        -5.99820276 eV

  energy without entropy =       -5.99820276  energy(sigma->0) =       -5.99820276


--------------------------------------------------------------------------------------------------------




----------------------------------------- Iteration    1(   5)  ---------------------------------------


     EDDAV:  cpu time    5.5600: real time    5.5675
       DOS:  cpu time    0.0001: real time    0.0001
    CHARGE:  cpu time    0.3555: real time    0.3563
    MIXING:  cpu time    0.0278: real time    0.0279
    --------------------------------------------
      LOOP:  cpu time    5.9475: real time    5.9586

 eigenvalue-minimisations  :   328
 total energy-change (2. order) :-0.1832402E+01  (-0.1681876E+01)
 number of electron      76.9999976 magnetization      19.6553078
 augmentation part       47.3824430 magnetization      20.4742452

 Broyden mixing:
  rms(total) = 0.50986E+01    rms(broyden)= 0.50982E+01
  rms(prec ) = 0.51108E+01
  weight for this iteration     100.00

 Free energy of the ion-electron system (eV)
  ---------------------------------------------------
  alpha Z        PSCENC =         1.32722496
  Ewald energy   TEWEN  =      9445.10722246
  -Hartree energ DENC   =    -18305.08098954
  -exchange      EXHF   =         0.00000000
  -V(xc)+E(xc)   XCENC  =       319.81938405
  PAW double counting   =      8590.52025862    -9330.27113800
  entropy T*S    EENTRO =         0.00000000
  eigenvalues    EBANDS =      -465.80165954
  atomic energy  EATOM  =      9736.54909260
  Solvation  Ediel_sol  =         0.00000000
  ---------------------------------------------------
  free energy    TOTEN  =        -7.83060440 eV

  energy without entropy =       -7.83060440  energy(sigma->0) =       -7.83060440


--------------------------------------------------------------------------------------------------------




----------------------------------------- Iteration    1(   6)  ---------------------------------------


    POTLOK:  cpu time    1.3819: real time    1.3832
    SETDIJ:  cpu time    0.0158: real time    0.0158
     EDDAV:  cpu time    5.2802: real time    5.2866
       DOS:  cpu time    0.0002: real time    0.0002
    CHARGE:  cpu time    0.3561: real time    0.3566
    MIXING:  cpu time    0.0299: real time    0.0299
    --------------------------------------------
      LOOP:  cpu time    7.0672: real time    7.0781

 eigenvalue-minimisations  :   308
 total energy-change (2. order) : 0.7199336E+02  (-0.3352580E+02)
 number of electron      76.9999988 magnetization      18.8246744
 augmentation part       51.9948682 magnetization      11.7241130

 Broyden mixing:
  rms(total) = 0.15395E+01    rms(broyden)= 0.15385E+01
  rms(prec ) = 0.15661E+01
  weight for this iteration     100.00

 eigenvalues of (default mixing * dielectric matrix)
  average eigenvalue GAMMA=   0.8656
  0.8656

 Free energy of the ion-electron system (eV)
  ---------------------------------------------------
  alpha Z        PSCENC =         1.32722496
  Ewald energy   TEWEN  =      9445.10722246
  -Hartree energ DENC   =    -18200.08669065
  -exchange      EXHF   =         0.00000000
  -V(xc)+E(xc)   XCENC  =       365.53234749
  PAW double counting   =      8680.32136880    -9399.46206137
  entropy T*S    EENTRO =        -0.00000000
  eigenvalues    EBANDS =      -565.12574423
  atomic energy  EATOM  =      9736.54909260
  Solvation  Ediel_sol  =         0.00000000
  ---------------------------------------------------
  free energy    TOTEN  =        64.16276005 eV

  energy without entropy =       64.16276005  energy(sigma->0) =       64.16276005


--------------------------------------------------------------------------------------------------------




----------------------------------------- Iteration    1(   7)  ---------------------------------------


    POTLOK:  cpu time    1.3675: real time    1.3790
    SETDIJ:  cpu time    0.0156: real time    0.0156
     EDDAV:  cpu time    5.5621: real time    5.5685
       DOS:  cpu time    0.0001: real time    0.0001
    CHARGE:  cpu time    0.3492: real time    0.3496
    MIXING:  cpu time    0.0340: real time    0.0340
    --------------------------------------------
      LOOP:  cpu time    7.3318: real time    7.3529

 eigenvalue-minimisations  :   328
 total energy-change (2. order) :-0.2659654E+02  (-0.1065617E+02)
 number of electron      76.9999997 magnetization      17.8974912
 augmentation part       49.4157027 magnetization      10.7809181

 Broyden mixing:
  rms(total) = 0.73975E+00    rms(broyden)= 0.73911E+00
  rms(prec ) = 0.74548E+00
  weight for this iteration     100.00

 eigenvalues of (default mixing * dielectric matrix)
  average eigenvalue GAMMA=   0.8838
  1.0798  0.6877

 Free energy of the ion-electron system (eV)
  ---------------------------------------------------
  alpha Z        PSCENC =         1.32722496
  Ewald energy   TEWEN  =      9445.10722246
  -Hartree energ DENC   =    -18308.95445198
  -exchange      EXHF   =         0.00000000
  -V(xc)+E(xc)   XCENC  =       352.47736334
  PAW double counting   =      8862.96588749    -9626.06367841
  entropy T*S    EENTRO =         0.00000000
  eigenvalues    EBANDS =      -425.84244428
  atomic energy  EATOM  =      9736.54909260
  Solvation  Ediel_sol  =         0.00000000
  ---------------------------------------------------
  free energy    TOTEN  =        37.56621618 eV

  energy without entropy =       37.56621618  energy(sigma->0) =       37.56621618


--------------------------------------------------------------------------------------------------------




----------------------------------------- Iteration    1(   8)  ---------------------------------------


    POTLOK:  cpu time    1.3816: real time    1.4136
    SETDIJ:  cpu time    0.0154: real time    0.0154
     EDDAV:  cpu time    5.2357: real time    5.2402
       DOS:  cpu time    0.0001: real time    0.0001
    CHARGE:  cpu time    0.3504: real time    0.3505
    MIXING:  cpu time    0.0349: real time    0.0349
    --------------------------------------------
      LOOP:  cpu time    7.0214: real time    7.0607

 eigenvalue-minimisations  :   304
 total energy-change (2. order) : 0.2367514E+01  (-0.8880022E+00)
 number of electron      76.9999988 magnetization      17.0373854
 augmentation part       49.6255317 magnetization      10.0351076

 Broyden mixing:
  rms(total) = 0.48408E+00    rms(broyden)= 0.48399E+00
  rms(prec ) = 0.48875E+00
  weight for this iteration     100.00

 eigenvalues of (default mixing * dielectric matrix)
  average eigenvalue GAMMA=   0.9229
  1.2267  0.9191  0.6230

 Free energy of the ion-electron system (eV)
  ---------------------------------------------------
  alpha Z        PSCENC =         1.32722496
  Ewald energy   TEWEN  =      9445.10722246
  -Hartree energ DENC   =    -18297.96222872
  -exchange      EXHF   =         0.00000000
  -V(xc)+E(xc)   XCENC  =       353.14060502
  PAW double counting   =      8952.73861794    -9711.09935404
  entropy T*S    EENTRO =         0.00000000
  eigenvalues    EBANDS =      -439.86745047
  atomic energy  EATOM  =      9736.54909260
  Solvation  Ediel_sol  =         0.00000000
  ---------------------------------------------------
  free energy    TOTEN  =        39.93372975 eV

  energy without entropy =       39.93372975  energy(sigma->0) =       39.93372975


--------------------------------------------------------------------------------------------------------




----------------------------------------- Iteration    1(   9)  ---------------------------------------


    POTLOK:  cpu time    1.3736: real time    1.3748
    SETDIJ:  cpu time    0.0159: real time    0.0159
     EDDAV:  cpu time    5.6685: real time    5.6739
       DOS:  cpu time    0.0001: real time    0.0001
    CHARGE:  cpu time    0.3487: real time    0.3491
    MIXING:  cpu time    0.0368: real time    0.0368
    --------------------------------------------
      LOOP:  cpu time    7.4470: real time    7.4566

 eigenvalue-minimisations  :   336
 total energy-change (2. order) :-0.1040509E+02  (-0.3652957E+00)
 number of electron      76.9999996 magnetization      16.0562617
 augmentation part       49.6891857 magnetization       9.3171651

 Broyden mixing:
  rms(total) = 0.39982E+00    rms(broyden)= 0.39932E+00
  rms(prec ) = 0.40646E+00
  weight for this iteration     100.00

 eigenvalues of (default mixing * dielectric matrix)
  average eigenvalue GAMMA=   0.8976
  1.2191  1.2191  0.6474  0.5048

 Free energy of the ion-electron system (eV)
  ---------------------------------------------------
  alpha Z        PSCENC =         1.32722496
  Ewald energy   TEWEN  =      9445.10722246
  -Hartree energ DENC   =    -18293.54715278
  -exchange      EXHF   =         0.00000000
  -V(xc)+E(xc)   XCENC  =       344.48071148
  PAW double counting   =      8994.38105211    -9749.08355653
  entropy T*S    EENTRO =        -0.00000000
  eigenvalues    EBANDS =      -449.68595672
  atomic energy  EATOM  =      9736.54909260
  Solvation  Ediel_sol  =         0.00000000
  ---------------------------------------------------
  free energy    TOTEN  =        29.52863758 eV

  energy without entropy =       29.52863758  energy(sigma->0) =       29.52863758


--------------------------------------------------------------------------------------------------------




----------------------------------------- Iteration    1(  10)  ---------------------------------------


    POTLOK:  cpu time    1.3782: real time    1.3788
    SETDIJ:  cpu time    0.0154: real time    0.0154
     EDDAV:  cpu time    5.5440: real time    5.5597
       DOS:  cpu time    0.0002: real time    0.0002
    CHARGE:  cpu time    0.3495: real time    0.3498
    MIXING:  cpu time    0.0404: real time    0.0404
    --------------------------------------------
      LOOP:  cpu time    7.3310: real time    7.3501

 eigenvalue-minimisations  :   328
 total energy-change (2. order) :-0.1010479E+02  (-0.6774651E+00)
 number of electron      76.9999993 magnetization      15.0890131
 augmentation part       49.6131153 magnetization       8.7993092

 Broyden mixing:
  rms(total) = 0.32636E+00    rms(broyden)= 0.32598E+00
  rms(prec ) = 0.33014E+00
  weight for this iteration     100.00

 eigenvalues of (default mixing * dielectric matrix)
  average eigenvalue GAMMA=   0.9555
  1.5459  1.5459  0.6261  0.6261  0.4335

 Free energy of the ion-electron system (eV)
  ---------------------------------------------------
  alpha Z        PSCENC =         1.32722496
  Ewald energy   TEWEN  =      9445.10722246
  -Hartree energ DENC   =    -18292.03183146
  -exchange      EXHF   =         0.00000000
  -V(xc)+E(xc)   XCENC  =       336.25165439
  PAW double counting   =      9021.45274436    -9773.64339438
  entropy T*S    EENTRO =         0.00000000
  eigenvalues    EBANDS =      -455.58886850
  atomic energy  EATOM  =      9736.54909260
  Solvation  Ediel_sol  =         0.00000000
  ---------------------------------------------------
  free energy    TOTEN  =        19.42384443 eV

  energy without entropy =       19.42384443  energy(sigma->0) =       19.42384443


--------------------------------------------------------------------------------------------------------




----------------------------------------- Iteration    1(  11)  ---------------------------------------


    POTLOK:  cpu time    1.3745: real time    1.3754
    SETDIJ:  cpu time    0.0156: real time    0.0156
     EDDAV:  cpu time    5.0758: real time    5.0794
       DOS:  cpu time    0.0001: real time    0.0001
    CHARGE:  cpu time    0.3551: real time    0.3552
    MIXING:  cpu time    0.0444: real time    0.0444
    --------------------------------------------
      LOOP:  cpu time    6.8691: real time    6.8764

 eigenvalue-minimisations  :   292
 total energy-change (2. order) :-0.8639042E+01  (-0.4557656E+00)
 number of electron      76.9999986 magnetization      14.9530921
 augmentation part       49.8772331 magnetization      12.5723705

 Broyden mixing:
  rms(total) = 0.56089E+00    rms(broyden)= 0.55946E+00
  rms(prec ) = 0.57243E+00
  weight for this iteration     100.00

 eigenvalues of (default mixing * dielectric matrix)
  average eigenvalue GAMMA=   0.8118
  1.5542  1.5542  0.6510  0.5829  0.4423  0.0862

 Free energy of the ion-electron system (eV)
  ---------------------------------------------------
  alpha Z        PSCENC =         1.32722496
  Ewald energy   TEWEN  =      9445.10722246
  -Hartree energ DENC   =    -18285.43195020
  -exchange      EXHF   =         0.00000000
  -V(xc)+E(xc)   XCENC  =       329.40221049
  PAW double counting   =      9024.29841595    -9774.23312742
  entropy T*S    EENTRO =         0.00000000
  eigenvalues    EBANDS =      -466.23428615
  atomic energy  EATOM  =      9736.54909260
  Solvation  Ediel_sol  =         0.00000000
  ---------------------------------------------------
  free energy    TOTEN  =        10.78480268 eV

  energy without entropy =       10.78480268  energy(sigma->0) =       10.78480268


--------------------------------------------------------------------------------------------------------




----------------------------------------- Iteration    1(  12)  ---------------------------------------


    POTLOK:  cpu time    1.3797: real time    1.3805
    SETDIJ:  cpu time    0.0157: real time    0.0157
     EDDAV:  cpu time    5.0262: real time    5.0297
       DOS:  cpu time    0.0001: real time    0.0001
    CHARGE:  cpu time    0.3555: real time    0.3556
    MIXING:  cpu time    0.0508: real time    0.0508
    --------------------------------------------
      LOOP:  cpu time    6.8313: real time    6.8383

 eigenvalue-minimisations  :   288
 total energy-change (2. order) : 0.1106881E+01  (-0.5256675E-01)
 number of electron      76.9999986 magnetization      14.9280138
 augmentation part       49.8212134 magnetization      12.6567804

 Broyden mixing:
  rms(total) = 0.52625E+00    rms(broyden)= 0.52617E+00
  rms(prec ) = 0.53816E+00
  weight for this iteration     100.00

 eigenvalues of (default mixing * dielectric matrix)
  average eigenvalue GAMMA=   0.7396
  1.5238  1.5238  0.6559  0.5908  0.4521  0.2212  0.2099

 Free energy of the ion-electron system (eV)
  ---------------------------------------------------
  alpha Z        PSCENC =         1.32722496
  Ewald energy   TEWEN  =      9445.10722246
  -Hartree energ DENC   =    -18287.78855281
  -exchange      EXHF   =         0.00000000
  -V(xc)+E(xc)   XCENC  =       330.74616833
  PAW double counting   =      9031.89816626    -9782.05236628
  entropy T*S    EENTRO =         0.00000000
  eigenvalues    EBANDS =      -463.89527178
  atomic energy  EATOM  =      9736.54909260
  Solvation  Ediel_sol  =         0.00000000
  ---------------------------------------------------
  free energy    TOTEN  =        11.89168374 eV

  energy without entropy =       11.89168374  energy(sigma->0) =       11.89168374


--------------------------------------------------------------------------------------------------------




----------------------------------------- Iteration    1(  13)  ---------------------------------------


    POTLOK:  cpu time    1.3777: real time    1.3787
    SETDIJ:  cpu time    0.0156: real time    0.0156
     EDDAV:  cpu time    5.5263: real time    5.5304
       DOS:  cpu time    0.0001: real time    0.0001
    CHARGE:  cpu time    0.3570: real time    0.3573
    MIXING:  cpu time    0.0572: real time    0.0572
    --------------------------------------------
      LOOP:  cpu time    7.3373: real time    7.3886

 eigenvalue-minimisations  :   328
 total energy-change (2. order) : 0.1495147E+00  (-0.2060030E-02)
 number of electron      76.9999986 magnetization      14.2110074
 augmentation part       49.8271633 magnetization      11.9583807

 Broyden mixing:
  rms(total) = 0.52486E+00    rms(broyden)= 0.52486E+00
  rms(prec ) = 0.53684E+00
  weight for this iteration     100.00

 eigenvalues of (default mixing * dielectric matrix)
  average eigenvalue GAMMA=   0.8284
  1.6457  1.6457  0.6615  0.6615  0.6093  0.6093  0.4740  0.3203

 Free energy of the ion-electron system (eV)
  ---------------------------------------------------
  alpha Z        PSCENC =         1.32722496
  Ewald energy   TEWEN  =      9445.10722246
  -Hartree energ DENC   =    -18287.75128664
  -exchange      EXHF   =         0.00000000
  -V(xc)+E(xc)   XCENC  =       330.95416682
  PAW double counting   =      9031.40537314    -9781.48565858
  entropy T*S    EENTRO =         0.00000000
  eigenvalues    EBANDS =      -464.06493634
  atomic energy  EATOM  =      9736.54909260
  Solvation  Ediel_sol  =         0.00000000
  ---------------------------------------------------
  free energy    TOTEN  =        12.04119842 eV

  energy without entropy =       12.04119842  energy(sigma->0) =       12.04119842


--------------------------------------------------------------------------------------------------------




----------------------------------------- Iteration    1(  14)  ---------------------------------------


    POTLOK:  cpu time    1.3769: real time    1.3782
    SETDIJ:  cpu time    0.0157: real time    0.0157
     EDDAV:  cpu time    5.5086: real time    5.5123
       DOS:  cpu time    0.0001: real time    0.0001
    CHARGE:  cpu time    0.3559: real time    0.3560
    MIXING:  cpu time    0.0602: real time    0.0602
    --------------------------------------------
      LOOP:  cpu time    7.3208: real time    7.3286

 eigenvalue-minimisations  :   328
 total energy-change (2. order) :-0.5543498E+01  (-0.3210133E+00)
 number of electron      76.9999987 magnetization      12.1871341
 augmentation part       49.8020507 magnetization      10.2210920

 Broyden mixing:
  rms(total) = 0.48624E+00    rms(broyden)= 0.48623E+00
  rms(prec ) = 0.49532E+00
  weight for this iteration     100.00

 eigenvalues of (default mixing * dielectric matrix)
  average eigenvalue GAMMA=   0.9255
  2.0401  2.0401  0.8256  0.8256  0.7562  0.6465  0.4156  0.4156  0.3645

 Free energy of the ion-electron system (eV)
  ---------------------------------------------------
  alpha Z        PSCENC =         1.32722496
  Ewald energy   TEWEN  =      9445.10722246
  -Hartree energ DENC   =    -18288.70067132
  -exchange      EXHF   =         0.00000000
  -V(xc)+E(xc)   XCENC  =       327.13188538
  PAW double counting   =      9003.00812712    -9752.57070322
  entropy T*S    EENTRO =         0.00000000
  eigenvalues    EBANDS =      -465.35447710
  atomic energy  EATOM  =      9736.54909260
  Solvation  Ediel_sol  =         0.00000000
  ---------------------------------------------------
  free energy    TOTEN  =         6.49770087 eV

  energy without entropy =        6.49770087  energy(sigma->0) =        6.49770087


--------------------------------------------------------------------------------------------------------




----------------------------------------- Iteration    1(  15)  ---------------------------------------


    POTLOK:  cpu time    1.3793: real time    1.3803
    SETDIJ:  cpu time    0.0154: real time    0.0154
     EDDAV:  cpu time    5.6269: real time    5.6309
       DOS:  cpu time    0.0001: real time    0.0001
    CHARGE:  cpu time    0.3511: real time    0.3512
    MIXING:  cpu time    0.0658: real time    0.0661
    --------------------------------------------
      LOOP:  cpu time    7.4422: real time    7.4503

 eigenvalue-minimisations  :   336
 total energy-change (2. order) :-0.8125051E+01  (-0.6469531E+00)
 number of electron      76.9999984 magnetization      10.3109882
 augmentation part       49.6708816 magnetization       8.8032753

 Broyden mixing:
  rms(total) = 0.35541E+00    rms(broyden)= 0.35538E+00
  rms(prec ) = 0.36069E+00
  weight for this iteration     100.00

 eigenvalues of (default mixing * dielectric matrix)
  average eigenvalue GAMMA=   1.0092
  3.7429  1.2735  0.7814  0.7814  0.6658  0.6658  0.7141  0.7141  0.4210  0.3316

 Free energy of the ion-electron system (eV)
  ---------------------------------------------------
  alpha Z        PSCENC =         1.32722496
  Ewald energy   TEWEN  =      9445.10722246
  -Hartree energ DENC   =    -18301.25667150
  -exchange      EXHF   =         0.00000000
  -V(xc)+E(xc)   XCENC  =       321.12310999
  PAW double counting   =      8998.17295867    -9748.42211641
  entropy T*S    EENTRO =         0.00000000
  eigenvalues    EBANDS =      -454.22817076
  atomic energy  EATOM  =      9736.54909260
  Solvation  Ediel_sol  =         0.00000000
  ---------------------------------------------------
  free energy    TOTEN  =        -1.62734998 eV

  energy without entropy =       -1.62734998  energy(sigma->0) =       -1.62734998


--------------------------------------------------------------------------------------------------------




----------------------------------------- Iteration    1(  16)  ---------------------------------------


    POTLOK:  cpu time    1.3788: real time    1.3794
    SETDIJ:  cpu time    0.0155: real time    0.0155
     EDDAV:  cpu time    5.9454: real time    5.9816
       DOS:  cpu time    0.0001: real time    0.0001
    CHARGE:  cpu time    0.3550: real time    0.3551
    MIXING:  cpu time    0.0717: real time    0.0718
    --------------------------------------------
      LOOP:  cpu time    7.7699: real time    7.8094

 eigenvalue-minimisations  :   360
 total energy-change (2. order) :-0.5417098E+01  (-0.3502353E+00)
 number of electron      76.9999985 magnetization       9.2899876
 augmentation part       49.5677122 magnetization       8.1008019

 Broyden mixing:
  rms(total) = 0.26548E+00    rms(broyden)= 0.26545E+00
  rms(prec ) = 0.26806E+00
  weight for this iteration     100.00

 eigenvalues of (default mixing * dielectric matrix)
  average eigenvalue GAMMA=   1.0889
  4.2260  1.5634  1.1001  1.1001  0.7259  0.7259  0.6399  0.6399  0.4616  0.4616
  0.3339

 Free energy of the ion-electron system (eV)
  ---------------------------------------------------
  alpha Z        PSCENC =         1.32722496
  Ewald energy   TEWEN  =      9445.10722246
  -Hartree energ DENC   =    -18311.97154632
  -exchange      EXHF   =         0.00000000
  -V(xc)+E(xc)   XCENC  =       316.89183099
  PAW double counting   =      9014.30172427    -9764.09275171
  entropy T*S    EENTRO =         0.00000000
  eigenvalues    EBANDS =      -445.15724564
  atomic energy  EATOM  =      9736.54909260
  Solvation  Ediel_sol  =         0.00000000
  ---------------------------------------------------
  free energy    TOTEN  =        -7.04444839 eV

  energy without entropy =       -7.04444839  energy(sigma->0) =       -7.04444839


--------------------------------------------------------------------------------------------------------




----------------------------------------- Iteration    1(  17)  ---------------------------------------


    POTLOK:  cpu time    1.3792: real time    1.3805
    SETDIJ:  cpu time    0.0156: real time    0.0156
     EDDAV:  cpu time    5.6268: real time    5.6307
       DOS:  cpu time    0.0001: real time    0.0001
    CHARGE:  cpu time    0.3545: real time    0.3548
    MIXING:  cpu time    0.0779: real time    0.0779
    --------------------------------------------
      LOOP:  cpu time    7.4575: real time    7.4645

 eigenvalue-minimisations  :   336
 total energy-change (2. order) :-0.2861574E+01  (-0.1169873E+00)
 number of electron      76.9999984 magnetization       7.9039249
 augmentation part       49.5779502 magnetization       6.8061062

 Broyden mixing:
  rms(total) = 0.15735E+00    rms(broyden)= 0.15732E+00
  rms(prec ) = 0.15970E+00
  weight for this iteration     100.00

 eigenvalues of (default mixing * dielectric matrix)
  average eigenvalue GAMMA=   1.1627
  4.8237  2.0965  1.1809  1.1809  0.7544  0.7544  0.6005  0.6005  0.6281  0.5662
  0.4345  0.3318

 Free energy of the ion-electron system (eV)
  ---------------------------------------------------
  alpha Z        PSCENC =         1.32722496
  Ewald energy   TEWEN  =      9445.10722246
  -Hartree energ DENC   =    -18311.72921732
  -exchange      EXHF   =         0.00000000
  -V(xc)+E(xc)   XCENC  =       314.42603989
  PAW double counting   =      9026.92800298    -9775.36940804
  entropy T*S    EENTRO =         0.00000000
  eigenvalues    EBANDS =      -447.14498017
  atomic energy  EATOM  =      9736.54909260
  Solvation  Ediel_sol  =         0.00000000
  ---------------------------------------------------
  free energy    TOTEN  =        -9.90602264 eV

  energy without entropy =       -9.90602264  energy(sigma->0) =       -9.90602264


--------------------------------------------------------------------------------------------------------




----------------------------------------- Iteration    1(  18)  ---------------------------------------


    POTLOK:  cpu time    1.3790: real time    1.3802
    SETDIJ:  cpu time    0.0153: real time    0.0153
     EDDAV:  cpu time    5.7794: real time    5.7852
       DOS:  cpu time    0.0001: real time    0.0001
    CHARGE:  cpu time    0.3545: real time    0.3549
    MIXING:  cpu time    0.0846: real time    0.0846
    --------------------------------------------
      LOOP:  cpu time    7.6163: real time    7.6266

 eigenvalue-minimisations  :   348
 total energy-change (2. order) :-0.2394826E+01  (-0.7771039E-01)
 number of electron      76.9999986 magnetization       6.6038098
 augmentation part       49.5788556 magnetization       5.5558651

 Broyden mixing:
  rms(total) = 0.12692E+00    rms(broyden)= 0.12689E+00
  rms(prec ) = 0.12905E+00
  weight for this iteration     100.00

 eigenvalues of (default mixing * dielectric matrix)
  average eigenvalue GAMMA=   1.2437
  5.8335  2.1819  1.3594  1.0723  1.0723  0.7325  0.7325  0.8133  0.5380  0.5380
  0.5356  0.4252  0.3336

 Free energy of the ion-electron system (eV)
  ---------------------------------------------------
  alpha Z        PSCENC =         1.32722496
  Ewald energy   TEWEN  =      9445.10722246
  -Hartree energ DENC   =    -18312.51847276
  -exchange      EXHF   =         0.00000000
  -V(xc)+E(xc)   XCENC  =       312.30952046
  PAW double counting   =      9029.84255574    -9777.92891198
  entropy T*S    EENTRO =         0.00000000
  eigenvalues    EBANDS =      -446.98908045
  atomic energy  EATOM  =      9736.54909260
  Solvation  Ediel_sol  =         0.00000000
  ---------------------------------------------------
  free energy    TOTEN  =       -12.30084897 eV

  energy without entropy =      -12.30084897  energy(sigma->0) =      -12.30084897


--------------------------------------------------------------------------------------------------------




----------------------------------------- Iteration    1(  19)  ---------------------------------------


    POTLOK:  cpu time    1.3790: real time    1.3800
    SETDIJ:  cpu time    0.0157: real time    0.0157
     EDDAV:  cpu time    5.4055: real time    5.4110
       DOS:  cpu time    0.0001: real time    0.0001
    CHARGE:  cpu time    0.3549: real time    0.3554
    MIXING:  cpu time    0.0917: real time    0.0917
    --------------------------------------------
      LOOP:  cpu time    7.2505: real time    7.2601

 eigenvalue-minimisations  :   320
 total energy-change (2. order) :-0.1209236E+01  (-0.3496510E-01)
 number of electron      76.9999985 magnetization       5.4537707
 augmentation part       49.5052908 magnetization       4.4665914

 Broyden mixing:
  rms(total) = 0.90909E-01    rms(broyden)= 0.90897E-01
  rms(prec ) = 0.92990E-01
  weight for this iteration     100.00

 eigenvalues of (default mixing * dielectric matrix)
  average eigenvalue GAMMA=   1.3278
  6.8854  2.5340  1.4371  1.1029  1.1029  0.7538  0.7538  0.8923  0.6769  0.5899
  0.5899  0.5074  0.4299  0.3334

 Free energy of the ion-electron system (eV)
  ---------------------------------------------------
  alpha Z        PSCENC =         1.32722496
  Ewald energy   TEWEN  =      9445.10722246
  -Hartree energ DENC   =    -18312.56817832
  -exchange      EXHF   =         0.00000000
  -V(xc)+E(xc)   XCENC  =       311.34729271
  PAW double counting   =      9019.90746467    -9768.93049084
  entropy T*S    EENTRO =         0.00000000
  eigenvalues    EBANDS =      -446.24971282
  atomic energy  EATOM  =      9736.54909260
  Solvation  Ediel_sol  =         0.00000000
  ---------------------------------------------------
  free energy    TOTEN  =       -13.51008459 eV

  energy without entropy =      -13.51008459  energy(sigma->0) =      -13.51008459


--------------------------------------------------------------------------------------------------------




----------------------------------------- Iteration    1(  20)  ---------------------------------------


    POTLOK:  cpu time    1.3962: real time    1.3982
    SETDIJ:  cpu time    0.0159: real time    0.0163
     EDDAV:  cpu time    5.3567: real time    5.3618
       DOS:  cpu time    0.0001: real time    0.0001
    CHARGE:  cpu time    0.3545: real time    0.3551
    MIXING:  cpu time    0.1029: real time    0.1030
    --------------------------------------------
      LOOP:  cpu time    7.2299: real time    7.2403

 eigenvalue-minimisations  :   316
 total energy-change (2. order) :-0.6025188E+00  (-0.1289518E-01)
 number of electron      76.9999985 magnetization       4.8591762
 augmentation part       49.5041611 magnetization       3.9227276

 Broyden mixing:
  rms(total) = 0.69290E-01    rms(broyden)= 0.69284E-01
  rms(prec ) = 0.71067E-01
  weight for this iteration     100.00

 eigenvalues of (default mixing * dielectric matrix)
  average eigenvalue GAMMA=   1.3733
  7.0553  3.0280  1.8356  1.0459  1.0459  0.9989  0.9989  0.7454  0.7454  0.7208
  0.3334  0.5477  0.5477  0.5204  0.4296

 Free energy of the ion-electron system (eV)
  ---------------------------------------------------
  alpha Z        PSCENC =         1.32722496
  Ewald energy   TEWEN  =      9445.10722246
  -Hartree energ DENC   =    -18308.05316627
  -exchange      EXHF   =         0.00000000
  -V(xc)+E(xc)   XCENC  =       310.74826731
  PAW double counting   =      9005.95816862    -9755.20160713
  entropy T*S    EENTRO =         0.00000000
  eigenvalues    EBANDS =      -450.54780591
  atomic energy  EATOM  =      9736.54909260
  Solvation  Ediel_sol  =         0.00000000
  ---------------------------------------------------
  free energy    TOTEN  =       -14.11260337 eV

  energy without entropy =      -14.11260337  energy(sigma->0) =      -14.11260337


--------------------------------------------------------------------------------------------------------




----------------------------------------- Iteration    1(  21)  ---------------------------------------


    POTLOK:  cpu time    1.3807: real time    1.3816
    SETDIJ:  cpu time    0.0152: real time    0.0156
     EDDAV:  cpu time    5.8998: real time    5.9051
       DOS:  cpu time    0.0001: real time    0.0001
    CHARGE:  cpu time    0.3563: real time    0.3565
    MIXING:  cpu time    0.1114: real time    0.1120
    --------------------------------------------
      LOOP:  cpu time    7.7669: real time    7.7769

 eigenvalue-minimisations  :   356
 total energy-change (2. order) :-0.3177537E+00  (-0.3411418E-02)
 number of electron      76.9999985 magnetization       4.1026492
 augmentation part       49.4923623 magnetization       3.1603980

 Broyden mixing:
  rms(total) = 0.50682E-01    rms(broyden)= 0.50675E-01
  rms(prec ) = 0.51710E-01
  weight for this iteration     100.00

 eigenvalues of (default mixing * dielectric matrix)
  average eigenvalue GAMMA=   1.4550
  7.7907  3.8344  1.6646  1.6646  1.0426  1.0426  0.7434  0.7434  0.9065  0.7392
  0.7392  0.5504  0.5504  0.5053  0.4297  0.3334

 Free energy of the ion-electron system (eV)
  ---------------------------------------------------
  alpha Z        PSCENC =         1.32722496
  Ewald energy   TEWEN  =      9445.10722246
  -Hartree energ DENC   =    -18303.07645422
  -exchange      EXHF   =         0.00000000
  -V(xc)+E(xc)   XCENC  =       310.42258541
  PAW double counting   =      8995.93737540    -9745.64302144
  entropy T*S    EENTRO =         0.00000000
  eigenvalues    EBANDS =      -455.05438227
  atomic energy  EATOM  =      9736.54909260
  Solvation  Ediel_sol  =         0.00000000
  ---------------------------------------------------
  free energy    TOTEN  =       -14.43035711 eV

  energy without entropy =      -14.43035711  energy(sigma->0) =      -14.43035711


--------------------------------------------------------------------------------------------------------




----------------------------------------- Iteration    1(  22)  ---------------------------------------


    POTLOK:  cpu time    1.3773: real time    1.3779
    SETDIJ:  cpu time    0.0157: real time    0.0157
     EDDAV:  cpu time    5.4139: real time    5.4174
       DOS:  cpu time    0.0001: real time    0.0001
    CHARGE:  cpu time    0.3558: real time    0.3561
    MIXING:  cpu time    0.1155: real time    0.1155
    --------------------------------------------
      LOOP:  cpu time    7.2816: real time    7.2890

 eigenvalue-minimisations  :   320
 total energy-change (2. order) :-0.4100913E+00  (-0.3916751E-02)
 number of electron      76.9999986 magnetization       3.6374565
 augmentation part       49.5348365 magnetization       2.7085695

 Broyden mixing:
  rms(total) = 0.33432E-01    rms(broyden)= 0.33426E-01
  rms(prec ) = 0.34054E-01
  weight for this iteration     100.00

 eigenvalues of (default mixing * dielectric matrix)
  average eigenvalue GAMMA=   1.4881
  8.0682  4.4008  1.8318  1.8318  1.0415  1.0415  1.0498  0.7442  0.7442  0.8225
  0.7747  0.3334  0.4303  0.5450  0.5450  0.5996  0.4939

 Free energy of the ion-electron system (eV)
  ---------------------------------------------------
  alpha Z        PSCENC =         1.32722496
  Ewald energy   TEWEN  =      9445.10722246
  -Hartree energ DENC   =    -18296.96698809
  -exchange      EXHF   =         0.00000000
  -V(xc)+E(xc)   XCENC  =       309.91090624
  PAW double counting   =      8981.61947385    -9731.11961067
  entropy T*S    EENTRO =         0.00000000
  eigenvalues    EBANDS =      -461.26776978
  atomic energy  EATOM  =      9736.54909260
  Solvation  Ediel_sol  =         0.00000000
  ---------------------------------------------------
  free energy    TOTEN  =       -14.84044843 eV

  energy without entropy =      -14.84044843  energy(sigma->0) =      -14.84044843


--------------------------------------------------------------------------------------------------------




----------------------------------------- Iteration    1(  23)  ---------------------------------------


    POTLOK:  cpu time    1.3801: real time    1.3807
    SETDIJ:  cpu time    0.0156: real time    0.0156
     EDDAV:  cpu time    5.8400: real time    5.8446
       DOS:  cpu time    0.0001: real time    0.0001
    CHARGE:  cpu time    0.3554: real time    0.3555
    MIXING:  cpu time    0.1242: real time    0.1242
    --------------------------------------------
      LOOP:  cpu time    7.7189: real time    7.7270

 eigenvalue-minimisations  :   352
 total energy-change (2. order) :-0.1980274E+00  (-0.7544443E-03)
 number of electron      76.9999985 magnetization       3.0860682
 augmentation part       49.5462616 magnetization       2.1557774

 Broyden mixing:
  rms(total) = 0.30727E-01    rms(broyden)= 0.30724E-01
  rms(prec ) = 0.31395E-01
  weight for this iteration     100.00

 eigenvalues of (default mixing * dielectric matrix)
  average eigenvalue GAMMA=   1.5256
  8.8065  4.2346  2.4417  1.5629  1.5629  1.0355  1.0355  0.7417  0.7417  0.8847
  0.7519  0.7519  0.3334  0.5468  0.5468  0.4307  0.5580  0.4929

 Free energy of the ion-electron system (eV)
  ---------------------------------------------------
  alpha Z        PSCENC =         1.32722496
  Ewald energy   TEWEN  =      9445.10722246
  -Hartree energ DENC   =    -18294.10539165
  -exchange      EXHF   =         0.00000000
  -V(xc)+E(xc)   XCENC  =       309.67468593
  PAW double counting   =      8977.72697026    -9727.26780362
  entropy T*S    EENTRO =         0.00000000
  eigenvalues    EBANDS =      -464.05047677
  atomic energy  EATOM  =      9736.54909260
  Solvation  Ediel_sol  =         0.00000000
  ---------------------------------------------------
  free energy    TOTEN  =       -15.03847584 eV

  energy without entropy =      -15.03847584  energy(sigma->0) =      -15.03847584


--------------------------------------------------------------------------------------------------------




----------------------------------------- Iteration    1(  24)  ---------------------------------------


    POTLOK:  cpu time    1.3817: real time    1.3828
    SETDIJ:  cpu time    0.0154: real time    0.0154
     EDDAV:  cpu time    5.5492: real time    5.5571
       DOS:  cpu time    0.0001: real time    0.0001
    CHARGE:  cpu time    0.3499: real time    0.3500
    MIXING:  cpu time    0.1331: real time    0.1331
    --------------------------------------------
      LOOP:  cpu time    7.4329: real time    7.4447

 eigenvalue-minimisations  :   324
 total energy-change (2. order) :-0.1650443E+00  (-0.5357621E-03)
 number of electron      76.9999986 magnetization       2.5535182
 augmentation part       49.5464516 magnetization       1.6328375

 Broyden mixing:
  rms(total) = 0.23570E-01    rms(broyden)= 0.23568E-01
  rms(prec ) = 0.24080E-01
  weight for this iteration     100.00

 eigenvalues of (default mixing * dielectric matrix)
  average eigenvalue GAMMA=   1.5575
  9.4141  3.5575  3.5575  1.6916  1.6916  1.0381  1.0381  0.7427  0.7427  1.0018
  0.8374  0.7597  0.6711  0.3334  0.5498  0.5498  0.5173  0.4306  0.4667

 Free energy of the ion-electron system (eV)
  ---------------------------------------------------
  alpha Z        PSCENC =         1.32722496
  Ewald energy   TEWEN  =      9445.10722246
  -Hartree energ DENC   =    -18293.49747471
  -exchange      EXHF   =         0.00000000
  -V(xc)+E(xc)   XCENC  =       309.49853681
  PAW double counting   =      8979.46547096    -9729.08568658
  entropy T*S    EENTRO =         0.00000000
  eigenvalues    EBANDS =      -464.56790668
  atomic energy  EATOM  =      9736.54909260
  Solvation  Ediel_sol  =         0.00000000
  ---------------------------------------------------
  free energy    TOTEN  =       -15.20352019 eV

  energy without entropy =      -15.20352019  energy(sigma->0) =      -15.20352019


--------------------------------------------------------------------------------------------------------




----------------------------------------- Iteration    1(  25)  ---------------------------------------


    POTLOK:  cpu time    1.3843: real time    1.3854
    SETDIJ:  cpu time    0.0156: real time    0.0156
     EDDAV:  cpu time    5.7800: real time    5.7837
       DOS:  cpu time    0.0001: real time    0.0001
    CHARGE:  cpu time    0.3555: real time    0.3561
    MIXING:  cpu time    0.1424: real time    0.1425
    --------------------------------------------
      LOOP:  cpu time    7.6812: real time    7.6892

 eigenvalue-minimisations  :   344
 total energy-change (2. order) :-0.1555658E+00  (-0.4834876E-03)
 number of electron      76.9999985 magnetization       2.1832478
 augmentation part       49.5368054 magnetization       1.2701755

 Broyden mixing:
  rms(total) = 0.17223E-01    rms(broyden)= 0.17221E-01
  rms(prec ) = 0.17475E-01
  weight for this iteration     100.00

 eigenvalues of (default mixing * dielectric matrix)
  average eigenvalue GAMMA=   1.6067
  9.8927  3.9466  3.9466  1.7242  1.7242  1.4635  1.0350  1.0350  0.7423  0.7423
  0.8817  0.7734  0.7734  0.3334  0.6217  0.5484  0.5484  0.4304  0.4965  0.4740

 Free energy of the ion-electron system (eV)
  ---------------------------------------------------
  alpha Z        PSCENC =         1.32722496
  Ewald energy   TEWEN  =      9445.10722246
  -Hartree energ DENC   =    -18294.04666697
  -exchange      EXHF   =         0.00000000
  -V(xc)+E(xc)   XCENC  =       309.35576155
  PAW double counting   =      8984.67301979    -9734.33629569
  entropy T*S    EENTRO =         0.00000000
  eigenvalues    EBANDS =      -463.98844464
  atomic energy  EATOM  =      9736.54909260
  Solvation  Ediel_sol  =         0.00000000
  ---------------------------------------------------
  free energy    TOTEN  =       -15.35908594 eV

  energy without entropy =      -15.35908594  energy(sigma->0) =      -15.35908594


--------------------------------------------------------------------------------------------------------




----------------------------------------- Iteration    1(  26)  ---------------------------------------


    POTLOK:  cpu time    1.3790: real time    1.3796
    SETDIJ:  cpu time    0.0152: real time    0.0153
     EDDAV:  cpu time    5.5528: real time    5.5568
       DOS:  cpu time    0.0001: real time    0.0001
    CHARGE:  cpu time    0.3556: real time    0.3557
    MIXING:  cpu time    0.1521: real time    0.1522
    --------------------------------------------
      LOOP:  cpu time    7.4583: real time    7.4657

 eigenvalue-minimisations  :   328
 total energy-change (2. order) :-0.1270899E+00  (-0.1856734E-03)
 number of electron      76.9999985 magnetization       1.9193801
 augmentation part       49.5331101 magnetization       1.0048253

 Broyden mixing:
  rms(total) = 0.11381E-01    rms(broyden)= 0.11381E-01
  rms(prec ) = 0.11590E-01
  weight for this iteration     100.00

 eigenvalues of (default mixing * dielectric matrix)
  average eigenvalue GAMMA=   1.6292
 10.1322  5.0917  3.2060  2.3539  1.5775  1.5775  1.0358  1.0358  0.7424  0.7424
  0.8589  0.8589  0.8329  0.7178  0.3334  0.6189  0.5466  0.5466  0.4304  0.4893
  0.4851

 Free energy of the ion-electron system (eV)
  ---------------------------------------------------
  alpha Z        PSCENC =         1.32722496
  Ewald energy   TEWEN  =      9445.10722246
  -Hartree energ DENC   =    -18293.86244246
  -exchange      EXHF   =         0.00000000
  -V(xc)+E(xc)   XCENC  =       309.23348369
  PAW double counting   =      8988.57261027    -9738.16306223
  entropy T*S    EENTRO =         0.00000000
  eigenvalues    EBANDS =      -464.25030509
  atomic energy  EATOM  =      9736.54909260
  Solvation  Ediel_sol  =         0.00000000
  ---------------------------------------------------
  free energy    TOTEN  =       -15.48617580 eV

  energy without entropy =      -15.48617580  energy(sigma->0) =      -15.48617580


--------------------------------------------------------------------------------------------------------




----------------------------------------- Iteration    1(  27)  ---------------------------------------


    POTLOK:  cpu time    1.3777: real time    1.3789
    SETDIJ:  cpu time    0.0157: real time    0.0157
     EDDAV:  cpu time    5.4425: real time    5.4471
       DOS:  cpu time    0.0001: real time    0.0001
    CHARGE:  cpu time    0.3562: real time    0.3563
    MIXING:  cpu time    0.1594: real time    0.1630
    --------------------------------------------
      LOOP:  cpu time    7.3553: real time    7.3673

 eigenvalue-minimisations  :   320
 total energy-change (2. order) :-0.9706210E-01  (-0.9633994E-04)
 number of electron      76.9999985 magnetization       1.6681787
 augmentation part       49.5318107 magnetization       0.7468172

 Broyden mixing:
  rms(total) = 0.10050E-01    rms(broyden)= 0.10049E-01
  rms(prec ) = 0.10223E-01
  weight for this iteration     100.00

 eigenvalues of (default mixing * dielectric matrix)
  average eigenvalue GAMMA=   1.6671
 10.4777  5.4974  3.0197  3.0197  1.6846  1.6846  1.0354  1.0354  1.0845  1.0845
  0.7423  0.7423  0.7412  0.7412  0.3334  0.5474  0.5474  0.6404  0.6135  0.4303
  0.4976  0.4753

 Free energy of the ion-electron system (eV)
  ---------------------------------------------------
  alpha Z        PSCENC =         1.32722496
  Ewald energy   TEWEN  =      9445.10722246
  -Hartree energ DENC   =    -18293.33610904
  -exchange      EXHF   =         0.00000000
  -V(xc)+E(xc)   XCENC  =       309.13947096
  PAW double counting   =      8990.38015767    -9739.91987344
  entropy T*S    EENTRO =         0.00000000
  eigenvalues    EBANDS =      -464.83042405
  atomic energy  EATOM  =      9736.54909260
  Solvation  Ediel_sol  =         0.00000000
  ---------------------------------------------------
  free energy    TOTEN  =       -15.58323790 eV

  energy without entropy =      -15.58323790  energy(sigma->0) =      -15.58323790


--------------------------------------------------------------------------------------------------------




----------------------------------------- Iteration    1(  28)  ---------------------------------------


    POTLOK:  cpu time    1.7472: real time    1.7642
    SETDIJ:  cpu time    0.0154: real time    0.0154
     EDDAV:  cpu time    5.9799: real time    5.9843
       DOS:  cpu time    0.0002: real time    0.0002
    CHARGE:  cpu time    0.3564: real time    0.3564
    MIXING:  cpu time    0.1729: real time    0.1732
    --------------------------------------------
      LOOP:  cpu time    8.2754: real time    8.2997

 eigenvalue-minimisations  :   360
 total energy-change (2. order) :-0.6566870E-01  (-0.6800587E-04)
 number of electron      76.9999985 magnetization       1.4472993
 augmentation part       49.5351816 magnetization       0.5262795

 Broyden mixing:
  rms(total) = 0.65270E-02    rms(broyden)= 0.65261E-02
  rms(prec ) = 0.66164E-02
  weight for this iteration     100.00

 eigenvalues of (default mixing * dielectric matrix)
  average eigenvalue GAMMA=   1.7028
 10.9645  6.1970  3.3690  2.8499  1.8772  1.5557  1.5557  1.0352  1.0352  0.7424
  0.7424  0.9835  0.7964  0.7964  0.3334  0.6490  0.6490  0.5461  0.5461  0.4303
  0.5416  0.4903  0.4790

 Free energy of the ion-electron system (eV)
  ---------------------------------------------------
  alpha Z        PSCENC =         1.32722496
  Ewald energy   TEWEN  =      9445.10722246
  -Hartree energ DENC   =    -18292.66603541
  -exchange      EXHF   =         0.00000000
  -V(xc)+E(xc)   XCENC  =       309.06840187
  PAW double counting   =      8989.83390235    -9739.31404377
  entropy T*S    EENTRO =         0.00000000
  eigenvalues    EBANDS =      -465.55467165
  atomic energy  EATOM  =      9736.54909260
  Solvation  Ediel_sol  =         0.00000000
  ---------------------------------------------------
  free energy    TOTEN  =       -15.64890659 eV

  energy without entropy =      -15.64890659  energy(sigma->0) =      -15.64890659


--------------------------------------------------------------------------------------------------------




----------------------------------------- Iteration    1(  29)  ---------------------------------------


    POTLOK:  cpu time    1.3690: real time    1.3779
    SETDIJ:  cpu time    0.0153: real time    0.0153
     EDDAV:  cpu time    5.5498: real time    5.5534
       DOS:  cpu time    0.0001: real time    0.0001
    CHARGE:  cpu time    0.3563: real time    0.3566
    MIXING:  cpu time    0.1829: real time    0.1829
    --------------------------------------------
      LOOP:  cpu time    7.4771: real time    7.4925

 eigenvalue-minimisations  :   328
 total energy-change (2. order) :-0.4969973E-01  (-0.3330013E-04)
 number of electron      76.9999985 magnetization       1.3077530
 augmentation part       49.5343759 magnetization       0.3878813

 Broyden mixing:
  rms(total) = 0.46657E-02    rms(broyden)= 0.46649E-02
  rms(prec ) = 0.47391E-02
  weight for this iteration     100.00

 eigenvalues of (default mixing * dielectric matrix)
  average eigenvalue GAMMA=   1.7708
 11.4440  7.3767  3.2682  2.7587  2.7587  1.5474  1.5474  1.0352  1.0352  0.7424
  0.7424  1.0260  1.0260  0.8045  0.7281  0.7281  0.3334  0.6108  0.5474  0.5474
  0.4304  0.4990  0.4807  0.4807

 Free energy of the ion-electron system (eV)
  ---------------------------------------------------
  alpha Z        PSCENC =         1.32722496
  Ewald energy   TEWEN  =      9445.10722246
  -Hartree energ DENC   =    -18292.40005299
  -exchange      EXHF   =         0.00000000
  -V(xc)+E(xc)   XCENC  =       309.02037643
  PAW double counting   =      8989.91301304    -9739.41291366
  entropy T*S    EENTRO =         0.00000000
  eigenvalues    EBANDS =      -465.80256916
  atomic energy  EATOM  =      9736.54909260
  Solvation  Ediel_sol  =         0.00000000
  ---------------------------------------------------
  free energy    TOTEN  =       -15.69860632 eV

  energy without entropy =      -15.69860632  energy(sigma->0) =      -15.69860632


--------------------------------------------------------------------------------------------------------




----------------------------------------- Iteration    1(  30)  ---------------------------------------


    POTLOK:  cpu time    1.3775: real time    1.3781
    SETDIJ:  cpu time    0.0152: real time    0.0152
     EDDAV:  cpu time    5.6002: real time    5.6043
       DOS:  cpu time    0.0001: real time    0.0001
    CHARGE:  cpu time    0.3558: real time    0.3558
    MIXING:  cpu time    0.1907: real time    0.1907
    --------------------------------------------
      LOOP:  cpu time    7.5432: real time    7.5506

 eigenvalue-minimisations  :   332
 total energy-change (2. order) :-0.2606996E-01  (-0.1382928E-04)
 number of electron      76.9999985 magnetization       1.2074974
 augmentation part       49.5321019 magnetization       0.2864152

 Broyden mixing:
  rms(total) = 0.37590E-02    rms(broyden)= 0.37587E-02
  rms(prec ) = 0.38408E-02
  weight for this iteration     100.00

 eigenvalues of (default mixing * dielectric matrix)
  average eigenvalue GAMMA=   1.8073
 11.9056  8.0080  3.4810  3.4810  2.2303  1.6368  1.4433  1.4433  1.0352  1.0352
  1.0448  0.7424  0.7424  0.8233  0.8233  0.6870  0.6870  0.3334  0.6140  0.5467
  0.5467  0.4304  0.4962  0.4825  0.4825

 Free energy of the ion-electron system (eV)
  ---------------------------------------------------
  alpha Z        PSCENC =         1.32722496
  Ewald energy   TEWEN  =      9445.10722246
  -Hartree energ DENC   =    -18292.20087438
  -exchange      EXHF   =         0.00000000
  -V(xc)+E(xc)   XCENC  =       308.99646854
  PAW double counting   =      8989.38065049    -9738.94082311
  entropy T*S    EENTRO =         0.00000000
  eigenvalues    EBANDS =      -465.94363784
  atomic energy  EATOM  =      9736.54909260
  Solvation  Ediel_sol  =         0.00000000
  ---------------------------------------------------
  free energy    TOTEN  =       -15.72467628 eV

  energy without entropy =      -15.72467628  energy(sigma->0) =      -15.72467628


--------------------------------------------------------------------------------------------------------




----------------------------------------- Iteration    1(  31)  ---------------------------------------


    POTLOK:  cpu time    1.3784: real time    1.3795
    SETDIJ:  cpu time    0.0155: real time    0.0155
     EDDAV:  cpu time    5.5951: real time    5.5995
       DOS:  cpu time    0.0001: real time    0.0001
    CHARGE:  cpu time    0.3585: real time    0.3586
    MIXING:  cpu time    0.2037: real time    0.2040
    --------------------------------------------
      LOOP:  cpu time    7.5548: real time    7.5634

 eigenvalue-minimisations  :   332
 total energy-change (2. order) :-0.1545980E-01  (-0.8305324E-05)
 number of electron      76.9999985 magnetization       1.1301952
 augmentation part       49.5334183 magnetization       0.2098619

 Broyden mixing:
  rms(total) = 0.27714E-02    rms(broyden)= 0.27711E-02
  rms(prec ) = 0.28340E-02
  weight for this iteration     100.00

 eigenvalues of (default mixing * dielectric matrix)
  average eigenvalue GAMMA=   1.8471
 12.4467  8.4746  3.6171  3.6171  2.2819  2.2819  1.3993  1.3993  1.0352  1.0352
  1.2150  0.7424  0.7424  0.8814  0.8814  0.3334  0.7109  0.7109  0.5471  0.5471
  0.6118  0.6118  0.4304  0.5019  0.4840  0.4840

 Free energy of the ion-electron system (eV)
  ---------------------------------------------------
  alpha Z        PSCENC =         1.32722496
  Ewald energy   TEWEN  =      9445.10722246
  -Hartree energ DENC   =    -18291.99160587
  -exchange      EXHF   =         0.00000000
  -V(xc)+E(xc)   XCENC  =       308.97748103
  PAW double counting   =      8988.35965469    -9737.93304846
  entropy T*S    EENTRO =         0.00000000
  eigenvalues    EBANDS =      -466.13615749
  atomic energy  EATOM  =      9736.54909260
  Solvation  Ediel_sol  =         0.00000000
  ---------------------------------------------------
  free energy    TOTEN  =       -15.74013608 eV

  energy without entropy =      -15.74013608  energy(sigma->0) =      -15.74013608


--------------------------------------------------------------------------------------------------------




----------------------------------------- Iteration    1(  32)  ---------------------------------------


    POTLOK:  cpu time    1.3824: real time    1.3831
    SETDIJ:  cpu time    0.0154: real time    0.0154
     EDDAV:  cpu time    6.1888: real time    6.2153
       DOS:  cpu time    0.0001: real time    0.0001
    CHARGE:  cpu time    0.3563: real time    0.3564
    MIXING:  cpu time    0.2079: real time    0.2082
    --------------------------------------------
      LOOP:  cpu time    8.1546: real time    8.1849

 eigenvalue-minimisations  :   376
 total energy-change (2. order) :-0.8959476E-02  (-0.4787573E-05)
 number of electron      76.9999985 magnetization       1.0906118
 augmentation part       49.5347586 magnetization       0.1710657

 Broyden mixing:
  rms(total) = 0.19203E-02    rms(broyden)= 0.19200E-02
  rms(prec ) = 0.19765E-02
  weight for this iteration     100.00

 eigenvalues of (default mixing * dielectric matrix)
  average eigenvalue GAMMA=   1.8616
 12.9176  8.7570  4.3329  2.8384  2.8384  2.2780  1.6691  1.0351  1.0351  1.2972
  1.2972  0.7424  0.7424  0.8741  0.8741  0.8552  0.6909  0.6909  0.3334  0.6292
  0.5471  0.5471  0.4304  0.5468  0.4816  0.4816  0.4997

 Free energy of the ion-electron system (eV)
  ---------------------------------------------------
  alpha Z        PSCENC =         1.32722496
  Ewald energy   TEWEN  =      9445.10722246
  -Hartree energ DENC   =    -18291.94894824
  -exchange      EXHF   =         0.00000000
  -V(xc)+E(xc)   XCENC  =       308.96605944
  PAW double counting   =      8987.91642461    -9737.49037224
  entropy T*S    EENTRO =         0.00000000
  eigenvalues    EBANDS =      -466.17579915
  atomic energy  EATOM  =      9736.54909260
  Solvation  Ediel_sol  =         0.00000000
  ---------------------------------------------------
  free energy    TOTEN  =       -15.74909556 eV

  energy without entropy =      -15.74909556  energy(sigma->0) =      -15.74909556


--------------------------------------------------------------------------------------------------------




----------------------------------------- Iteration    1(  33)  ---------------------------------------


    POTLOK:  cpu time    1.3791: real time    1.3798
    SETDIJ:  cpu time    0.0159: real time    0.0159
     EDDAV:  cpu time    5.5476: real time    5.5523
       DOS:  cpu time    0.0002: real time    0.0001
    CHARGE:  cpu time    0.3549: real time    0.3552
    MIXING:  cpu time    0.2279: real time    0.2280
    --------------------------------------------
      LOOP:  cpu time    7.5292: real time    7.5380

 eigenvalue-minimisations  :   328
 total energy-change (2. order) :-0.4140957E-02  (-0.2211879E-05)
 number of electron      76.9999985 magnetization       1.0413343
 augmentation part       49.5347122 magnetization       0.1217930

 Broyden mixing:
  rms(total) = 0.11916E-02    rms(broyden)= 0.11915E-02
  rms(prec ) = 0.12248E-02
  weight for this iteration     100.00

 eigenvalues of (default mixing * dielectric matrix)
  average eigenvalue GAMMA=   1.9047
 13.4096  8.8366  4.9936  2.9085  2.9085  2.6411  1.6279  1.6279  1.0351  1.0351
  1.2256  1.2256  0.7424  0.7424  0.8830  0.8830  0.7411  0.6913  0.6913  0.3334
  0.6222  0.5473  0.5473  0.4304  0.5396  0.4809  0.4809  0.4992

 Free energy of the ion-electron system (eV)
  ---------------------------------------------------
  alpha Z        PSCENC =         1.32722496
  Ewald energy   TEWEN  =      9445.10722246
  -Hartree energ DENC   =    -18292.06666297
  -exchange      EXHF   =         0.00000000
  -V(xc)+E(xc)   XCENC  =       308.96281374
  PAW double counting   =      8988.19863015    -9737.76756571
  entropy T*S    EENTRO =         0.00000000
  eigenvalues    EBANDS =      -466.06399174
  atomic energy  EATOM  =      9736.54909260
  Solvation  Ediel_sol  =         0.00000000
  ---------------------------------------------------
  free energy    TOTEN  =       -15.75323652 eV

[...]
     19      -5.7738      1.00000
     20      -5.7719      1.00000
     21      -5.7641      1.00000
     22      -5.7409      1.00000
     23      -5.6090      1.00000
     24      -5.5680      1.00000
     25      -5.5659      1.00000
     26      -5.5004      1.00000
     27      -5.4990      1.00000
     28      -5.4156      1.00000
     29      -5.4137      1.00000
     30      -5.3223      1.00000
     31      -5.2985      1.00000
     32      -5.2639      1.00000
     33      -5.2606      1.00000
     34      -5.2189      1.00000
     35      -5.2174      1.00000
     36      -5.1251      1.00000
     37      -4.9403      1.00000
     38      -4.9329      1.00000
     39      -4.2954      1.00000
     40      -2.8201      0.00000
     41      -2.6576      0.00000
     42      -2.6492      0.00000
     43      -1.7964      0.00000
     44      -1.7932      0.00000
     45      -1.3700      0.00000
     46      -0.7279      0.00000
     47      -0.7171      0.00000
     48      -0.3148      0.00000
     49      -0.0033      0.00000
     50       0.0796      0.00000
     51       0.1173      0.00000
     52       0.1475      0.00000
     53       0.1549      0.00000
     54       0.1678      0.00000
     55       0.1844      0.00000
     56       0.1922      0.00000
     57       0.2663      0.00000
     58       0.3081      0.00000
     59       0.3160      0.00000
     60       0.3220      0.00000

 spin component 2

 k-point     1 :       0.0000    0.0000    0.0000
  band No.  band energies     occupation 
      1      -9.6208      1.00000
      2      -7.7636      1.00000
      3      -7.7606      1.00000
      4      -7.2137      1.00000
      5      -7.1290      1.00000
      6      -6.8768      1.00000
      7      -6.8742      1.00000
      8      -6.7298      1.00000
      9      -6.6900      1.00000
     10      -6.6878      1.00000
     11      -6.4352      1.00000
     12      -6.3174      1.00000
     13      -6.3018      1.00000
     14      -6.2751      1.00000
     15      -6.2699      1.00000
     16      -6.0384      1.00000
     17      -5.8306      1.00000
     18      -5.8281      1.00000
     19      -5.7403      1.00000
     20      -5.7252      1.00000
     21      -5.7232      1.00000
     22      -5.6831      1.00000
     23      -5.5464      1.00000
     24      -5.5356      1.00000
     25      -5.5334      1.00000
     26      -5.4481      1.00000
     27      -5.4459      1.00000
     28      -5.3492      1.00000
     29      -5.3478      1.00000
     30      -5.2934      1.00000
     31      -5.2169      1.00000
     32      -5.2135      1.00000
     33      -5.2048      1.00000
     34      -5.1734      1.00000
     35      -5.1711      1.00000
     36      -5.0926      1.00000
     37      -4.8805      1.00000
     38      -4.8726      1.00000
     39      -3.9643      0.00000
     40      -2.7578      0.00000
     41      -2.5723      0.00000
     42      -2.5637      0.00000
     43      -1.6131      0.00000
     44      -1.6086      0.00000
     45      -1.0041      0.00000
     46      -0.6538      0.00000
     47      -0.6420      0.00000
     48      -0.1989      0.00000
     49       0.0047      0.00000
     50       0.1149      0.00000
     51       0.1493      0.00000
     52       0.1556      0.00000
     53       0.1702      0.00000
     54       0.1723      0.00000
     55       0.1880      0.00000
     56       0.1966      0.00000
     57       0.3003      0.00000
     58       0.3107      0.00000
     59       0.3139      0.00000
     60       0.3213      0.00000


--------------------------------------------------------------------------------------------------------


 soft charge-density along one line, spin component           1
         0         1         2         3         4         5         6         7         8         9
 total charge-density along one line
 
 soft charge-density along one line, spin component           2
         0         1         2         3         4         5         6         7         8         9
 total charge-density along one line
 
 pseudopotential strength for first ion, spin component:           1
-10.762   0.010   0.003   0.002  -0.008   1.198  -0.007  -0.003
  0.010 -10.745   0.005  -0.007   0.001  -0.007   1.186  -0.004
  0.003   0.005 -10.745   0.000  -0.006  -0.003  -0.004   1.187
  0.002  -0.007   0.000 -10.737  -0.007  -0.002   0.006   0.000
 -0.008   0.001  -0.006  -0.007 -10.740   0.006   0.000   0.003
  1.198  -0.007  -0.003  -0.002   0.006   6.171   0.006   0.004
 -0.007   1.186  -0.004   0.006   0.000   0.006   6.181   0.004
 -0.003  -0.004   1.187   0.000   0.003   0.004   0.004   6.178
 -0.002   0.006   0.000   1.182   0.005   0.002  -0.006   0.000
  0.006   0.000   0.003   0.005   1.182  -0.005  -0.001  -0.000
  0.003  -0.001   0.001   0.001   0.001  -0.004   0.002  -0.000
  0.005  -0.002   0.002   0.001   0.002  -0.008   0.004  -0.000
  0.002  -0.001   0.013  -0.001   0.023   0.000   0.000  -0.009
 -0.001  -0.023  -0.001   0.003  -0.000   0.001   0.018   0.001
 -0.022  -0.001  -0.001  -0.002   0.003   0.015   0.001   0.000
  0.002  -0.001   0.014  -0.001   0.026   0.001  -0.000  -0.009
 -0.001  -0.026  -0.002   0.003  -0.000   0.002   0.020   0.002
 -0.023  -0.001  -0.001  -0.002   0.004   0.016   0.002  -0.000
 pseudopotential strength for first ion, spin component:           2
-10.715  -0.006   0.003  -0.002   0.001   1.161   0.005  -0.002
 -0.006 -10.726   0.003  -0.003  -0.003   0.005   1.171  -0.002
  0.003   0.003 -10.732   0.001  -0.005  -0.002  -0.002   1.177
 -0.002  -0.003   0.001 -10.725  -0.007   0.001   0.002  -0.000
  0.001  -0.003  -0.005  -0.007 -10.727  -0.001   0.002   0.003
  1.161   0.005  -0.002   0.001  -0.001   6.195  -0.002   0.001
  0.005   1.171  -0.002   0.002   0.002  -0.002   6.190   0.002
 -0.002  -0.002   1.177  -0.000   0.003   0.001   0.002   6.184
  0.001   0.002  -0.000   1.171   0.006  -0.001  -0.002   0.000
 -0.001   0.002   0.003   0.006   1.170   0.000  -0.001  -0.000
 -0.001   0.000   0.003   0.003   0.001   0.000  -0.000  -0.001
 -0.001   0.000   0.007   0.006   0.001   0.000  -0.000  -0.001
  0.003  -0.002   0.014   0.000   0.024  -0.003   0.002  -0.010
  0.000  -0.025  -0.001   0.002   0.000   0.000   0.021   0.002
 -0.026   0.000  -0.002  -0.002   0.002   0.020   0.000   0.002
  0.004  -0.002   0.016   0.000   0.028  -0.004   0.002  -0.012
  0.000  -0.029  -0.001   0.003   0.000   0.000   0.024   0.003
 -0.030   0.000  -0.002  -0.002   0.002   0.023   0.000   0.002
 total augmentation occupancy for first ion, spin component:           1
  1.946   0.007  -0.002  -0.003  -0.008  -0.014   0.001   0.001   0.001   0.002   0.025  -0.002  -0.007  -0.008   0.066   0.003
  0.007   1.958   0.008  -0.005  -0.000   0.001  -0.012  -0.002   0.001  -0.000  -0.011   0.001   0.004   0.052  -0.008  -0.002
 -0.002   0.008   1.939  -0.001   0.002   0.000  -0.002  -0.008  -0.000   0.003  -0.019  -0.009  -0.029   0.012   0.003   0.016
 -0.003  -0.005  -0.001   1.943  -0.008   0.001   0.001  -0.000  -0.013   0.008  -0.017  -0.008   0.001  -0.011  -0.005   0.000
 -0.008  -0.000   0.002  -0.008   1.954   0.002  -0.000   0.003   0.008  -0.019  -0.001  -0.002  -0.050  -0.005  -0.008   0.027
 -0.014   0.001   0.000   0.001   0.002   0.012   0.002  -0.000  -0.001  -0.001  -0.002   0.001  -0.000   0.005   0.030   0.000
  0.001  -0.012  -0.002   0.001  -0.000   0.002   0.014   0.002  -0.001  -0.001   0.001  -0.000   0.000   0.039   0.005  -0.000
  0.001  -0.002  -0.008  -0.000   0.003  -0.000   0.002   0.010   0.001   0.002   0.021   0.001  -0.011   0.010  -0.000   0.000
  0.001   0.001  -0.000  -0.013   0.008  -0.001  -0.001   0.001   0.007   0.001   0.031  -0.002   0.002  -0.007  -0.005  -0.000
  0.002  -0.000   0.003   0.008  -0.019  -0.001  -0.001   0.002   0.001   0.009  -0.018   0.005  -0.023  -0.003  -0.005   0.002
  0.025  -0.011  -0.019  -0.017  -0.001  -0.002   0.001   0.021   0.031  -0.018   1.618  -0.118   0.264   0.018  -0.034  -0.034
 -0.002   0.001  -0.009  -0.008  -0.002   0.001  -0.000   0.001  -0.002   0.005  -0.118   0.013  -0.034  -0.002   0.004   0.003
 -0.007   0.004  -0.029   0.001  -0.050  -0.000   0.000  -0.011   0.002  -0.023   0.264  -0.034   0.115  -0.000   0.000  -0.011
 -0.008   0.052   0.012  -0.011  -0.005   0.005   0.039   0.010  -0.007  -0.003   0.018  -0.002  -0.000   0.161   0.028  -0.000
  0.066  -0.008   0.003  -0.005  -0.008   0.030   0.005  -0.000  -0.005  -0.005  -0.034   0.004   0.000   0.028   0.113   0.000
  0.003  -0.002   0.016   0.000   0.027   0.000  -0.000   0.000  -0.000   0.002  -0.034   0.003  -0.011  -0.000   0.000   0.002
  0.000  -0.031  -0.002   0.004   0.000  -0.000  -0.002  -0.000   0.000   0.000  -0.002   0.000  -0.000  -0.009  -0.002   0.000
 -0.031   0.000  -0.002  -0.001   0.005  -0.001  -0.000   0.000   0.000   0.000   0.004  -0.000   0.000  -0.002  -0.006  -0.000
 total augmentation occupancy for first ion, spin component:           2
  0.021  -0.009   0.002  -0.001   0.006  -0.003   0.002   0.001   0.001  -0.001  -0.037  -0.006   0.010   0.009  -0.020   0.001
 -0.009   0.005  -0.001  -0.000  -0.003   0.002   0.000   0.000  -0.001   0.000   0.017   0.003  -0.004  -0.005   0.009  -0.001
  0.002  -0.001  -0.000   0.000   0.001   0.001   0.000   0.002  -0.000  -0.000  -0.002  -0.001   0.002  -0.001  -0.004   0.000
 -0.001  -0.000   0.000  -0.001  -0.000   0.001  -0.001  -0.000   0.002  -0.000   0.003   0.000   0.000   0.003  -0.000   0.000
  0.006  -0.003   0.001  -0.000   0.001  -0.001   0.000  -0.000  -0.000   0.002  -0.009  -0.002   0.002   0.002  -0.002   0.000
 -0.003   0.002   0.001   0.001  -0.001   0.001  -0.000  -0.000  -0.000   0.000   0.007   0.000  -0.001  -0.002   0.004  -0.000
  0.002   0.000   0.000  -0.001   0.000  -0.000   0.000  -0.000   0.000  -0.000  -0.003  -0.000   0.000   0.001  -0.002   0.000
  0.001   0.000   0.002  -0.000  -0.000  -0.000  -0.000  -0.000  -0.000   0.000  -0.000   0.000  -0.000  -0.001   0.000   0.000
  0.001  -0.001  -0.000   0.002  -0.000  -0.000   0.000  -0.000  -0.000  -0.000  -0.002  -0.000  -0.000   0.001  -0.000   0.000
 -0.001   0.000  -0.000  -0.000   0.002   0.000  -0.000   0.000  -0.000  -0.000   0.003   0.000  -0.000  -0.000   0.001  -0.000
 -0.037   0.017  -0.002   0.003  -0.009   0.007  -0.003  -0.000  -0.002   0.003   0.068   0.003  -0.011  -0.018   0.040  -0.001
 -0.006   0.003  -0.001   0.000  -0.002   0.000  -0.000   0.000  -0.000   0.000   0.003   0.000  -0.000  -0.001   0.001  -0.000
  0.010  -0.004   0.002   0.000   0.002  -0.001   0.000  -0.000  -0.000  -0.000  -0.011  -0.000   0.000   0.002  -0.004   0.000
  0.009  -0.005  -0.001   0.003   0.002  -0.002   0.001  -0.001   0.001  -0.000  -0.018  -0.001   0.002   0.003  -0.008   0.000
 -0.020   0.009  -0.004  -0.000  -0.002   0.004  -0.002   0.000  -0.000   0.001   0.040   0.001  -0.004  -0.008   0.017  -0.000
  0.001  -0.001   0.000   0.000   0.000  -0.000   0.000   0.000   0.000  -0.000  -0.001  -0.000   0.000   0.000  -0.000   0.000
  0.000  -0.001  -0.000   0.000   0.000   0.000  -0.000   0.000  -0.000  -0.000   0.000  -0.000   0.000  -0.000   0.000   0.000
 -0.001   0.000  -0.000  -0.000   0.000  -0.000   0.000  -0.000  -0.000  -0.000  -0.000   0.000  -0.000   0.000  -0.000  -0.000


------------------------ aborting loop because EDIFF is reached ----------------------------------------


 


 total charge     
 
# of ion     s       p       d       tot
----------------------------------------
  1        0.440   0.207   9.272   9.919
  2        0.479   0.108   9.300   9.887
  3        0.441   0.209   9.272   9.922
  4        0.442   0.211   9.272   9.924
  5        0.425   0.254   9.247   9.926
  6        0.479   0.109   9.300   9.888
  7        0.480   0.110   9.300   9.890
------------------------------------------------
tot        3.185   1.207  64.964  69.356
 


 magnetization (x)
 
# of ion     s       p       d       tot
----------------------------------------
  1        0.027   0.013   0.023   0.063
  2        0.007   0.008   0.026   0.042
  3        0.027   0.013   0.022   0.063
  4        0.027   0.013   0.022   0.063
  5        0.069   0.014   0.018   0.101
  6        0.007   0.008   0.027   0.042
  7        0.007   0.009   0.027   0.043
------------------------------------------------
tot        0.171   0.080   0.166   0.416
 
    CHARGE:  cpu time    0.3549: real time    0.3553
    FORLOC:  cpu time    0.0351: real time    0.0351
    FORNL :  cpu time    1.0216: real time    1.0222
    STRESS:  cpu time    3.6477: real time    3.6523
    FORCOR:  cpu time    1.3528: real time    1.3541
    FORHAR:  cpu time    0.1789: real time    0.1789
    MIXING:  cpu time    0.0402: real time    0.0402
    OFIELD:  cpu time    0.0001: real time    0.0001

  FORCE on cell =-STRESS in cart. coord.  units (eV):
  Direction    XX          YY          ZZ          XY          YZ          ZX
  --------------------------------------------------------------------------------------
  Alpha Z     1.32722     1.32722     1.32722
  Ewald    2546.50819  3290.50181  3601.42775   858.94188  -392.23383   612.05049
  Hartree  5582.13811  6218.66302  6484.85012   732.30087  -334.16826   522.56009
  E(xc)    -449.28718  -449.07808  -448.98836     0.24602    -0.11155     0.17550
  Local   -8797.69529-10177.08181-10753.63060 -1589.78471   725.73245 -1133.59776
  n-local  -173.78499  -173.07790  -172.86806     0.84658    -0.40848     0.53930
  augment   655.11044   654.35952   654.00254    -0.94545     0.43084    -0.65171
  Kinetic   633.99773   632.71250   632.10478    -1.55780     0.70558    -1.11890
  Fock        0.00000     0.00000     0.00000     0.00000     0.00000     0.00000
  -------------------------------------------------------------------------------------
  Total      -1.68576    -1.67372    -1.77459     0.04739    -0.05325    -0.04298
  in kB      -0.10003    -0.09932    -0.10530     0.00281    -0.00316    -0.00255
  external pressure =       -0.10 kB  Pullay stress =        0.00 kB


 VOLUME and BASIS-vectors are now :
 -----------------------------------------------------------------------------
  energy-cutoff  :      295.45
  volume of cell :    27000.00
      direct lattice vectors                 reciprocal lattice vectors
    30.000000000  0.000000000  0.000000000     0.033333333  0.000000000  0.000000000
     0.000000000 30.000000000  0.000000000     0.000000000  0.033333333  0.000000000
     0.000000000  0.000000000 30.000000000     0.000000000  0.000000000  0.033333333

  length of vectors
    30.000000000 30.000000000 30.000000000     0.033333333  0.033333333  0.033333333


 FORCES acting on ions
    electron-ion (+dipol)            ewald-force                    non-local-force                 convergence-correction
 -----------------------------------------------------------------------------------------------
   -.682E+02 0.104E+04 0.372E+02   0.671E+02 -.103E+04 -.366E+02   0.102E+01 -.751E+01 -.545E+00   -.231E-02 0.342E-02 0.139E-02
   0.808E+03 0.278E+03 0.583E+03   -.798E+03 -.276E+03 -.577E+03   -.982E+01 -.225E+01 -.583E+01   -.158E-01 -.191E-02 0.805E-02
   -.367E+03 -.548E+02 0.972E+03   0.364E+03 0.548E+02 -.965E+03   0.302E+01 0.113E-01 -.683E+01   0.764E-02 0.161E-02 -.115E-01
   -.976E+03 -.458E+02 -.357E+03   0.969E+03 0.459E+02 0.355E+03   0.713E+01 -.507E-01 0.218E+01   0.372E-03 -.165E-01 -.208E-02
   0.767E+03 -.501E+03 -.352E+03   -.764E+03 0.498E+03 0.351E+03   -.345E+01 0.221E+01 0.157E+01   -.120E-01 0.559E-02 -.478E-02
   0.884E+02 0.286E+03 -.991E+03   -.864E+02 -.284E+03 0.980E+03   -.206E+01 -.229E+01 0.112E+02   0.917E-02 -.696E-02 0.156E-01
   -.250E+03 -.100E+04 0.108E+03   0.249E+03 0.990E+03 -.107E+03   0.151E+01 0.114E+02 -.600E+00   0.223E-02 0.432E-02 -.420E-02
 -----------------------------------------------------------------------------------------------
   0.257E+01 -.157E+01 -.115E+01   -.568E-13 0.114E-12 0.000E+00   -.266E+01 0.156E+01 0.115E+01   -.107E-01 -.105E-01 0.244E-02
 
 
 POSITION                                       TOTAL-FORCE (eV/Angst)
 -----------------------------------------------------------------------------------
      7.40168      5.77443      7.41667         0.009266     -0.002981     -0.007712
      5.70414      6.67383      5.99554         0.004213     -0.008168     -0.002384
      7.89388      7.59772      5.85816         0.009495      0.005647      0.015687
      8.90965      7.58556      8.07788         0.006411      0.002459      0.001688
      6.49601      8.02385      7.84163        -0.012605      0.002894     -0.010085
      7.37286      6.65623      9.63547        -0.011623     -0.008225      0.006126
      8.14906      9.61566      7.10194        -0.005158      0.008375     -0.003320
 -----------------------------------------------------------------------------------
    total drift:                               -0.101923     -0.029753      0.005863


--------------------------------------------------------------------------------------------------------



  FREE ENERGIE OF THE ION-ELECTRON SYSTEM (eV)
  ---------------------------------------------------
  free  energy   TOTEN  =       -15.77629093 eV

  energy  without entropy=      -15.77629093  energy(sigma->0) =      -15.77629093
 
 d Force = 0.2196373E-03[ 0.979E-05, 0.429E-03]  d Energy = 0.2135721E-03 0.607E-05
 d Force =-0.7106035E+01[-0.711E+01,-0.710E+01]  d Ewald  =-0.7106034E+01-0.109E-05


--------------------------------------------------------------------------------------------------------


    POTLOK:  cpu time    1.3987: real time    1.4002


--------------------------------------------------------------------------------------------------------




--------------------------------------------------------------------------------------------------------


  
 reached required accuracy - stopping structural energy minimisation
     LOOP+:  cpu time   50.9788: real time   51.1031
    4ORBIT:  cpu time    0.0000: real time    0.0000
 


 total charge     
 
# of ion     s       p       d       tot
----------------------------------------
  1        0.440   0.207   9.272   9.919
  2        0.479   0.108   9.300   9.887
  3        0.441   0.209   9.272   9.922
  4        0.442   0.211   9.272   9.924
  5        0.425   0.254   9.247   9.926
  6        0.479   0.109   9.300   9.888
  7        0.480   0.110   9.300   9.890
------------------------------------------------
tot        3.185   1.207  64.964  69.356
 


 magnetization (x)
 
# of ion     s       p       d       tot
----------------------------------------
  1        0.027   0.013   0.023   0.063
  2        0.007   0.008   0.026   0.042
  3        0.027   0.013   0.022   0.063
  4        0.027   0.013   0.022   0.063
  5        0.069   0.014   0.018   0.101
  6        0.007   0.008   0.027   0.042
  7        0.007   0.009   0.027   0.043
------------------------------------------------
tot        0.171   0.080   0.166   0.416
 

 total amount of memory used by VASP on root node   157062. kBytes
========================================================================

   base      :      30000. kBytes
   nonl-proj :       6631. kBytes
   fftplans  :      30597. kBytes
   grid      :      77361. kBytes
   one-center:         31. kBytes
   wavefun   :      12442. kBytes
 
  
  
 General timing and accounting informations for this job:
 ========================================================
  
                  Total CPU time used (sec):     1948.000
                            User time (sec):     1871.650
                          System time (sec):       76.350
                         Elapsed time (sec):     1955.892
  
                   Maximum memory used (kb):      292528.
                   Average memory used (kb):           0.
  
                          Minor page faults:      4861624
                          Major page faults:            0
                 Voluntary context switches:         5505
