 vasp.5.4.4.18Apr17-6-g9f103f2a35 (build Jan 23 2020 13:04:52) gamma-only       
  
 executed on           IFC91_ompi date 2021.01.01  08:41:19
 running on   44 total cores
 distrk:  each k-point on   44 cores,    1 groups
 distr:  one band on NCORES_PER_BAND=  11 cores,    4 groups


--------------------------------------------------------------------------------------------------------


 INCAR:
 POTCAR:    PAW_PBE Cu 22Jun2005                  
 POTCAR:    PAW_PBE Cu 22Jun2005                  
   VRHFIN =Cu: d10 p1                                                           
   LEXCH  = PE                                                                  
   EATOM  =  1390.9808 eV,  102.2342 Ry                                         
                                                                                
   TITEL  = PAW_PBE Cu 22Jun2005                                                
   LULTRA =        F    use ultrasoft PP ?                                      
   IUNSCR =        1    unscreen: 0-lin 1-nonlin 2-no                           
   RPACOR =    2.000    partial core radius                                     
   POMASS =   63.546; ZVAL   =   11.000    mass and valenz                      
   RCORE  =    2.300    outmost cutoff radius                                   
   RWIGS  =    2.200; RWIGS  =    1.164    wigner-seitz radius (au A)           
   ENMAX  =  295.446; ENMIN  =  221.585 eV                                      
   ICORE  =        3    local potential                                         
   LCOR   =        T    correct aug charges                                     
   LPAW   =        T    paw PP                                                  
   EAUG   =  586.980                                                            
   DEXC   =    0.000                                                            
   RMAX   =    2.344    core radius for proj-oper                               
   RAUG   =    1.300    factor for augmentation sphere                          
   RDEP   =    2.302    radius for radial grids                                 
   RDEPT  =    1.771    core radius for aug-charge                              
                                                                                
   Atomic configuration                                                         
    9 entries                                                                   
     n  l   j            E        occ.                                          
     1  0  0.50     -8850.2468   2.0000                                         
     2  0  0.50     -1062.3498   2.0000                                         
     2  1  1.50      -916.8226   6.0000                                         
     3  0  0.50      -114.6929   2.0000                                         
     3  1  1.50       -72.1325   6.0000                                         
     3  2  2.50        -5.0394  10.0000                                         
     4  0  0.50        -4.6097   1.0000                                         
     4  1  0.50        -4.0817   0.0000                                         
     4  3  2.50        -1.3606   0.0000                                         
   Description                                                                  
     l       E           TYP  RCUT    TYP  RCUT                                 
     2     -5.0393973     23  2.200                                             
     2     10.8846608     23  2.200                                             
     0     -4.6097109     23  2.200                                             
     0      8.2520465     23  2.200                                             
     1     -2.7211652     23  2.200                                             
     1     21.7055443     23  2.200                                             
     3      2.7211652     23  2.300                                             
  local pseudopotential read in
  partial core-charges read in
  partial kinetic energy density read in
  atomic valenz-charges read in
  non local Contribution for L=           2  read in
    real space projection operators read in
  non local Contribution for L=           2  read in
    real space projection operators read in
  non local Contribution for L=           0  read in
    real space projection operators read in
  non local Contribution for L=           0  read in
    real space projection operators read in
  non local Contribution for L=           1  read in
    real space projection operators read in
  non local Contribution for L=           1  read in
    real space projection operators read in
    PAW grid and wavefunctions read in
 
   number of l-projection  operators is LMAX  =           6
   number of lm-projection operators is LMMAX =          18
 
  PAW_PBE Cu 22Jun2005                  :
 energy of atom  1       EATOM=-1390.9808
 kinetic energy error for atom=    0.0452 (will be added to EATOM!!)
 
 
 POSCAR: Unknown Structure <s> Cu </s>           
  positions in direct lattice
  No initial velocities read in
 exchange correlation table for  LEXCH =        8
   RHO(1)=    0.500       N(1)  =     2000
   RHO(2)=  100.500       N(2)  =     4000
 


--------------------------------------------------------------------------------------------------------


 ion  position               nearest neighbor table
   1  0.338  0.278  0.230-   8 2.30   7 2.34   4 2.35
   2  0.227  0.336  0.292-   3 2.22   6 2.25   4 2.34
   3  0.220  0.267  0.268-   2 2.22   5 2.22   7 2.42   4 2.49
   4  0.294  0.296  0.292-   6 2.26   8 2.32   2 2.34   1 2.35   7 2.48   3 2.49
   5  0.217  0.206  0.226-   3 2.22   7 2.26
   6  0.282  0.352  0.341-   2 2.25   4 2.26
   7  0.286  0.224  0.251-   5 2.26   8 2.34   1 2.34   3 2.42   4 2.48
   8  0.348  0.241  0.296-   1 2.30   4 2.32   7 2.34
 

IMPORTANT INFORMATION: All symmetrisations will be switched off!
NOSYMM: (Re-)initialisation of all symmetry stuff for point group C_1.

 
 
 KPOINTS: Gamma-point only                        
  k-points in reciprocal lattice
Space group operators:
 irot       det(A)        alpha          n_x          n_y          n_z        tau_x        tau_y        tau_z
    1     1.000000     0.000000     1.000000     0.000000     0.000000     0.000000     0.000000     0.000000


--------------------------------------------------------------------------------------------------------




 Dimension of arrays:
   k-points           NKPTS =      1   k-points in BZ     NKDIM =      1   number of bands    NBANDS=     64
   number of dos      NEDOS =    301   number of ions     NIONS =      8
   non local maximal  LDIM  =      6   non local SUM 2l+1 LMDIM =     18
   total plane-waves  NPLWV = ******
   max r-space proj   IRMAX =      1   max aug-charges    IRDMAX=   2345
   dimension x,y,z NGX =   126 NGY =  126 NGZ =  126
   dimension x,y,z NGXF=   252 NGYF=  252 NGZF=  252
   support grid    NGXF=   252 NGYF=  252 NGZF=  252
   ions per type =               8
   NGX,Y,Z   is equivalent  to a cutoff of   6.98,  6.98,  6.98 a.u.
   NGXF,Y,Z  is equivalent  to a cutoff of  13.96, 13.96, 13.96 a.u.

 SYSTEM =  unknown system                          
 POSCAR =  Unknown Structure <s> Cu </s>           

 Startparameter for this run:
   NWRITE =      2    write-flag & timer
   PREC   = normal    normal or accurate (medium, high low for compatibility)
   ISTART =      0    job   : 0-new  1-cont  2-samecut
   ICHARG =      2    charge: 1-file 2-atom 10-const
   ISPIN  =      2    spin polarized calculation?
   LNONCOLLINEAR =      F non collinear calculations
   LSORBIT =      F    spin-orbit coupling
   INIWAV =      1    electr: 0-lowe 1-rand  2-diag
   LASPH  =      F    aspherical Exc in radial PAW
   METAGGA=      F    non-selfconsistent MetaGGA calc.

 Electronic Relaxation 1
   ENCUT  =  295.4 eV  21.71 Ry    4.66 a.u.  42.05 42.05 42.05*2*pi/ulx,y,z
   ENINI  =  295.4     initial cutoff
   ENAUG  =  587.0 eV  augmentation charge cutoff
   NELM   =     60;   NELMIN=  2; NELMDL= -5     # of ELM steps 
   EDIFF  = 0.1E-04   stopping-criterion for ELM
   LREAL  =      F    real-space projection
   NLSPLINE    = F    spline interpolate recip. space projectors
   LCOMPAT=      F    compatible to vasp.4.4
   GGA_COMPAT  = T    GGA compatible to vasp.4.4-vasp.4.6
   LMAXPAW     = -100 max onsite density
   LMAXMIX     =    2 max onsite mixed and CHGCAR
   VOSKOWN=      0    Vosko Wilk Nusair interpolation
   ROPT   =    0.00000
 Ionic relaxation
   EDIFFG = -.1E+00   stopping-criterion for IOM
   NSW    =    101    number of steps for IOM
   NBLOCK =      1;   KBLOCK =    101    inner block; outer block 
   IBRION =      2    ionic relax: 0-MD 1-quasi-New 2-CG
   NFREE  =      1    steps in history (QN), initial steepest desc. (CG)
   ISIF   =      2    stress and relaxation
   IWAVPR =     11    prediction:  0-non 1-charg 2-wave 3-comb
   ISYM   =      0    0-nonsym 1-usesym 2-fastsym
   LCORR  =      T    Harris-Foulkes like correction to forces

   POTIM  = 0.5000    time-step for ionic-motion
   TEIN   =    0.0    initial temperature
   TEBEG  =    0.0;   TEEND  =   0.0 temperature during run
   SMASS  =  -3.00    Nose mass-parameter (am)
   estimated Nose-frequenzy (Omega)   =  0.10E-29 period in steps =****** mass=  -0.206E-25a.u.
   SCALEE = 1.0000    scale energy and forces
   NPACO  =    256;   APACO  = 16.0  distance and # of slots for P.C.
   PSTRESS=    0.0 pullay stress

  Mass of Ions in am
   POMASS =  63.55
  Ionic Valenz
   ZVAL   =  11.00
  Atomic Wigner-Seitz radii
   RWIGS  =  -1.00
  virtual crystal weights 
   VCA    =   1.00
   NELECT =      88.0000    total number of electrons
   NUPDOWN=      -1.0000    fix difference up-down

 DOS related values:
   EMIN   =  10.00;   EMAX   =-10.00  energy-range for DOS
   EFERMI =   0.00
   ISMEAR =     0;   SIGMA  =   0.00  broadening in eV -4-tet -1-fermi 0-gaus

 Electronic relaxation 2 (details)
   IALGO  =     38    algorithm
   LDIAG  =      T    sub-space diagonalisation (order eigenvalues)
   LSUBROT=      F    optimize rotation matrix (better conditioning)
   TURBO    =      0    0=normal 1=particle mesh
   IRESTART =      0    0=no restart 2=restart with 2 vectors
   NREBOOT  =      0    no. of reboots
   NMIN     =      0    reboot dimension
   EREF     =   0.00    reference energy to select bands
   IMIX   =      4    mixing-type and parameters
     AMIX     =   0.40;   BMIX     =  1.00
     AMIX_MAG =   1.60;   BMIX_MAG =  1.00
     AMIN     =   0.10
     WC   =   100.;   INIMIX=   1;  MIXPRE=   1;  MAXMIX= -45

 Intra band minimization:
   WEIMIN = 0.0010     energy-eigenvalue tresh-hold
   EBREAK =  0.39E-07  absolut break condition
   DEPER  =   0.30     relativ break condition  

   TIME   =   0.40     timestep for ELM

  volume/ion in A,a.u.               =    3375.00     22775.62
  Fermi-wavevector in a.u.,A,eV,Ry     =   0.242725  0.458684  0.801593  0.058915
  Thomas-Fermi vector in A             =   1.050536
 
 Write flags
   LWAVE        =      F    write WAVECAR
   LDOWNSAMPLE  =      F    k-point downsampling of WAVECAR
   LCHARG       =      F    write CHGCAR
   LVTOT        =      F    write LOCPOT, total local potential
   LVHAR        =      F    write LOCPOT, Hartree potential only
   LELF         =      F    write electronic localiz. function (ELF)
   LORBIT       =     11    0 simple, 1 ext, 2 COOP (PROOUT), +10 PAW based schemes


 Dipole corrections
   LMONO  =      F    monopole corrections only (constant potential shift)
   LDIPOL =      F    correct potential (dipole corrections)
   IDIPOL =      0    1-x, 2-y, 3-z, 4-all directions 
   EPSILON=  1.0000000 bulk dielectric constant

 Exchange correlation treatment:
   GGA     =    PE    GGA type
   LEXCH   =     8    internal setting for exchange type
   VOSKOWN=      0    Vosko Wilk Nusair interpolation
   LHFCALC =     F    Hartree Fock is set to
   LHFONE  =     F    Hartree Fock one center treatment
   AEXX    =    0.0000 exact exchange contribution

 Linear response parameters
   LEPSILON=     F    determine dielectric tensor
   LRPA    =     F    only Hartree local field effects (RPA)
   LNABLA  =     F    use nabla operator in PAW spheres
   LVEL    =     F    velocity operator in full k-point grid
   LINTERFAST=   F  fast interpolation
   KINTER  =     0    interpolate to denser k-point grid
   CSHIFT  =0.1000    complex shift for real part using Kramers Kronig
   OMEGAMAX=  -1.0    maximum frequency
   DEG_THRESHOLD= 0.2000000E-02 threshold for treating states as degnerate
   RTIME   =   -0.100 relaxation time in fs
  (WPLASMAI=    0.000 imaginary part of plasma frequency in eV, 0.658/RTIME)
   DFIELD  = 0.0000000 0.0000000 0.0000000 field for delta impulse in time
 
 Orbital magnetization related:
   ORBITALMAG=     F  switch on orbital magnetization
   LCHIMAG   =     F  perturbation theory with respect to B field
   DQ        =  0.001000  dq finite difference perturbation B field
   LLRAUG    =     F  two centre corrections for induced B field



--------------------------------------------------------------------------------------------------------


 conjugate gradient relaxation of ions
 charge density and potential will be updated during run
 spin polarized calculation
 Variant of blocked Davidson
 Davidson routine will perform the subspace rotation
 perform sub-space diagonalisation
    after iterative eigenvector-optimisation
 modified Broyden-mixing scheme, WC =      100.0
 initial mixing is a Kerker type mixing with AMIX =  0.4000 and BMIX =      1.0000
 Hartree-type preconditioning will be used
 using additional bands           20
 reciprocal scheme for non local part
 use partial core corrections
 calculate Harris-corrections to forces 
   (improved forces if not selfconsistent)
 use gradient corrections 
 use of overlap-Matrix (Vanderbilt PP)
 Gauss-broadening in eV      SIGMA  =   0.00


--------------------------------------------------------------------------------------------------------


  energy-cutoff  :      295.45
  volume of cell :    27000.00
      direct lattice vectors                 reciprocal lattice vectors
    30.000000000  0.000000000  0.000000000     0.033333333  0.000000000  0.000000000
     0.000000000 30.000000000  0.000000000     0.000000000  0.033333333  0.000000000
     0.000000000  0.000000000 30.000000000     0.000000000  0.000000000  0.033333333

  length of vectors
    30.000000000 30.000000000 30.000000000     0.033333333  0.033333333  0.033333333


 
 k-points in units of 2pi/SCALE and weight: Gamma-point only                        
   0.00000000  0.00000000  0.00000000       1.000
 
 k-points in reciprocal lattice and weights: Gamma-point only                        
   0.00000000  0.00000000  0.00000000       1.000
 
 position of ions in fractional coordinates (direct lattice) 
   0.33788068  0.27809362  0.22971676
   0.22702686  0.33610958  0.29229275
   0.21967409  0.26678764  0.26794009
   0.29373562  0.29568531  0.29209825
   0.21735052  0.20578391  0.22611429
   0.28184593  0.35158290  0.34123052
   0.28597826  0.22419678  0.25139159
   0.34760725  0.24055514  0.29604539
 
 position of ions in cartesian coordinates  (Angst):
  10.13642049  8.34280847  6.89150274
   6.81080580 10.08328726  8.76878239
   6.59022266  8.00362911  8.03820277
   8.81206860  8.87055924  8.76294741
   6.52051547  6.17351734  6.78342857
   8.45537776 10.54748707 10.23691566
   8.57934779  6.72590355  7.54174757
  10.42821749  7.21665406  8.88136184
 


--------------------------------------------------------------------------------------------------------


 use parallel FFT for orbitals z direction half grid
 k-point  1 :   0.0000 0.0000 0.0000  plane waves:  155509

 maximum and minimum number of plane-waves per node :     14150    14126

 maximum number of plane-waves:    155509
 maximum index in each direction: 
   IXMAX=   42   IYMAX=   42   IZMAX=   42
   IXMIN=  -42   IYMIN=  -42   IZMIN=    0


 parallel 3D FFT for wavefunctions:
    minimum data exchange during FFTs selected (reduces bandwidth)
 parallel 3D FFT for charge:
    minimum data exchange during FFTs selected (reduces bandwidth)


 total amount of memory used by VASP MPI-rank0   100829. kBytes
=======================================================================

   base      :      30000. kBytes
   nonl-proj :       3847. kBytes
   fftplans  :      16829. kBytes
   grid      :      42892. kBytes
   one-center:         15. kBytes
   wavefun   :       7246. kBytes
 
     INWAV:  cpu time    0.0000: real time    0.0002
 Broyden mixing: mesh for mixing (old mesh)
   NGX = 85   NGY = 85   NGZ = 85
  (NGX  =252   NGY  =252   NGZ  =252)
  gives a total of 614125 points

 initial charge density was supplied:
 charge density of overlapping atoms calculated
 number of electron      88.0000000 magnetization      24.0000000
 keeping initial charge density in first step


--------------------------------------------------------------------------------------------------------


 Maximum index for augmentation-charges          199 (set IRDMAX)


--------------------------------------------------------------------------------------------------------


 First call to EWALD:  gamma=   0.059
 Maximum number of real-space cells 3x 3x 3
 Maximum number of reciprocal cells 3x 3x 3

    FEWALD:  cpu time    0.0000: real time    0.0011


--------------------------------------- Iteration      1(   1)  ---------------------------------------


    POTLOK:  cpu time    0.9720: real time    0.9783
    SETDIJ:  cpu time    0.0120: real time    0.0129
     EDDAV:  cpu time    2.9840: real time    2.9886
       DOS:  cpu time    0.0000: real time    0.0004
    --------------------------------------------
      LOOP:  cpu time    3.9680: real time    3.9802

 eigenvalue-minimisations  :   288
 total energy-change (2. order) : 0.5263946E+03  (-0.9423129E+03)
 number of electron      88.0000000 magnetization      24.0000000
 augmentation part       88.0000000 magnetization      24.0000000

 Free energy of the ion-electron system (eV)
  ---------------------------------------------------
  alpha Z        PSCENC =         1.73351831
  Ewald energy   TEWEN  =     10964.95593397
  -Hartree energ DENC   =    -21087.76433115
  -exchange      EXHF   =         0.00000000
  -V(xc)+E(xc)   XCENC  =       365.48352126
  PAW double counting   =      9817.73743842   -10663.16701485
  entropy T*S    EENTRO =         0.00000000
  eigenvalues    EBANDS =        -0.06911801
  atomic energy  EATOM  =     11127.48467726
  Solvation  Ediel_sol  =         0.00000000
  ---------------------------------------------------
  free energy    TOTEN  =       526.39462521 eV

  energy without entropy =      526.39462521  energy(sigma->0) =      526.39462521


--------------------------------------------------------------------------------------------------------




--------------------------------------- Iteration      1(   2)  ---------------------------------------


     EDDAV:  cpu time    4.3720: real time    4.3790
       DOS:  cpu time    0.0000: real time    0.0003
    --------------------------------------------
      LOOP:  cpu time    4.3720: real time    4.3793

 eigenvalue-minimisations  :   472
 total energy-change (2. order) :-0.2830502E+03  (-0.2415382E+03)
 number of electron      88.0000000 magnetization      24.0000000
 augmentation part       88.0000000 magnetization      24.0000000

 Free energy of the ion-electron system (eV)
  ---------------------------------------------------
  alpha Z        PSCENC =         1.73351831
  Ewald energy   TEWEN  =     10964.95593397
  -Hartree energ DENC   =    -21087.76433115
  -exchange      EXHF   =         0.00000000
  -V(xc)+E(xc)   XCENC  =       365.48352126
  PAW double counting   =      9817.73743842   -10663.16701485
  entropy T*S    EENTRO =         0.00000000
  eigenvalues    EBANDS =      -283.11932732
  atomic energy  EATOM  =     11127.48467726
  Solvation  Ediel_sol  =         0.00000000
  ---------------------------------------------------
  free energy    TOTEN  =       243.34441590 eV

  energy without entropy =      243.34441590  energy(sigma->0) =      243.34441590


--------------------------------------------------------------------------------------------------------




--------------------------------------- Iteration      1(   3)  ---------------------------------------


     EDDAV:  cpu time    3.6400: real time    3.6483
       DOS:  cpu time    0.0000: real time    0.0003
    --------------------------------------------
      LOOP:  cpu time    3.6400: real time    3.6486

 eigenvalue-minimisations  :   376
 total energy-change (2. order) :-0.2039005E+03  (-0.1909609E+03)
 number of electron      88.0000000 magnetization      24.0000000
 augmentation part       88.0000000 magnetization      24.0000000

 Free energy of the ion-electron system (eV)
  ---------------------------------------------------
  alpha Z        PSCENC =         1.73351831
  Ewald energy   TEWEN  =     10964.95593397
  -Hartree energ DENC   =    -21087.76433115
  -exchange      EXHF   =         0.00000000
  -V(xc)+E(xc)   XCENC  =       365.48352126
  PAW double counting   =      9817.73743842   -10663.16701485
  entropy T*S    EENTRO =        -0.00000000
  eigenvalues    EBANDS =      -487.01979100
  atomic energy  EATOM  =     11127.48467726
  Solvation  Ediel_sol  =         0.00000000
  ---------------------------------------------------
  free energy    TOTEN  =        39.44395223 eV

  energy without entropy =       39.44395223  energy(sigma->0) =       39.44395223


--------------------------------------------------------------------------------------------------------




--------------------------------------- Iteration      1(   4)  ---------------------------------------


     EDDAV:  cpu time    3.6360: real time    3.6484
       DOS:  cpu time    0.0000: real time    0.0004
    --------------------------------------------
      LOOP:  cpu time    3.6360: real time    3.6488

 eigenvalue-minimisations  :   376
 total energy-change (2. order) :-0.4601944E+02  (-0.4166022E+02)
 number of electron      88.0000000 magnetization      24.0000000
 augmentation part       88.0000000 magnetization      24.0000000

 Free energy of the ion-electron system (eV)
  ---------------------------------------------------
  alpha Z        PSCENC =         1.73351831
  Ewald energy   TEWEN  =     10964.95593397
  -Hartree energ DENC   =    -21087.76433115
  -exchange      EXHF   =         0.00000000
  -V(xc)+E(xc)   XCENC  =       365.48352126
  PAW double counting   =      9817.73743842   -10663.16701485
  entropy T*S    EENTRO =         0.00000000
  eigenvalues    EBANDS =      -533.03923085
  atomic energy  EATOM  =     11127.48467726
  Solvation  Ediel_sol  =         0.00000000
  ---------------------------------------------------
  free energy    TOTEN  =        -6.57548762 eV

  energy without entropy =       -6.57548762  energy(sigma->0) =       -6.57548762


--------------------------------------------------------------------------------------------------------




--------------------------------------- Iteration      1(   5)  ---------------------------------------


     EDDAV:  cpu time    3.4560: real time    3.4661
       DOS:  cpu time    0.0000: real time    0.0006
    CHARGE:  cpu time    0.2800: real time    0.2823
    MIXING:  cpu time    0.0200: real time    0.0204
    --------------------------------------------
      LOOP:  cpu time    3.7600: real time    3.7693

 eigenvalue-minimisations  :   352
 total energy-change (2. order) :-0.2582937E+01  (-0.2406516E+01)
 number of electron      88.0000147 magnetization      22.7897771
 augmentation part       52.2444108 magnetization      21.0132006

 Broyden mixing:
  rms(total) = 0.48800E+01    rms(broyden)= 0.48780E+01
  rms(prec ) = 0.49076E+01
  weight for this iteration     100.00

 Free energy of the ion-electron system (eV)
  ---------------------------------------------------
  alpha Z        PSCENC =         1.73351831
  Ewald energy   TEWEN  =     10964.95593397
  -Hartree energ DENC   =    -21087.76433115
  -exchange      EXHF   =         0.00000000
  -V(xc)+E(xc)   XCENC  =       365.48352126
  PAW double counting   =      9817.73743842   -10663.16701485
  entropy T*S    EENTRO =         0.00000000
  eigenvalues    EBANDS =      -535.62216834
  atomic energy  EATOM  =     11127.48467726
  Solvation  Ediel_sol  =         0.00000000
  ---------------------------------------------------
  free energy    TOTEN  =        -9.15842511 eV

  energy without entropy =       -9.15842511  energy(sigma->0) =       -9.15842511


--------------------------------------------------------------------------------------------------------




--------------------------------------- Iteration      1(   6)  ---------------------------------------


    POTLOK:  cpu time    0.9520: real time    0.9593
    SETDIJ:  cpu time    0.0120: real time    0.0126
     EDDAV:  cpu time    3.0480: real time    3.0494
       DOS:  cpu time    0.0000: real time    0.0006
    CHARGE:  cpu time    0.2800: real time    0.2795
    MIXING:  cpu time    0.0240: real time    0.0218
    --------------------------------------------
      LOOP:  cpu time    4.3120: real time    4.3231

 eigenvalue-minimisations  :   296
 total energy-change (2. order) : 0.7298577E+02  (-0.3993000E+02)
 number of electron      88.0000176 magnetization      21.8949734
 augmentation part       60.5683211 magnetization      13.9132659

 Broyden mixing:
  rms(total) = 0.22248E+01    rms(broyden)= 0.22217E+01
  rms(prec ) = 0.22769E+01
  weight for this iteration     100.00

 eigenvalues of (default mixing * dielectric matrix)
  average eigenvalue GAMMA=   0.9362
  0.9362

 Free energy of the ion-electron system (eV)
  ---------------------------------------------------
  alpha Z        PSCENC =         1.73351831
  Ewald energy   TEWEN  =     10964.95593397
  -Hartree energ DENC   =    -20864.78846894
  -exchange      EXHF   =         0.00000000
  -V(xc)+E(xc)   XCENC  =       409.66655276
  PAW double counting   =      9831.12228743   -10639.14409508
  entropy T*S    EENTRO =         0.00000000
  eigenvalues    EBANDS =      -767.20306537
  atomic energy  EATOM  =     11127.48467726
  Solvation  Ediel_sol  =         0.00000000
  ---------------------------------------------------
  free energy    TOTEN  =        63.82734036 eV

  energy without entropy =       63.82734036  energy(sigma->0) =       63.82734036


--------------------------------------------------------------------------------------------------------




--------------------------------------- Iteration      1(   7)  ---------------------------------------


    POTLOK:  cpu time    0.9480: real time    0.9595
    SETDIJ:  cpu time    0.0120: real time    0.0127
     EDDAV:  cpu time    3.1680: real time    3.1682
       DOS:  cpu time    0.0000: real time    0.0005
    CHARGE:  cpu time    0.2800: real time    0.2795
    MIXING:  cpu time    0.0240: real time    0.0232
    --------------------------------------------
      LOOP:  cpu time    4.4320: real time    4.4435

 eigenvalue-minimisations  :   312
 total energy-change (2. order) :-0.1451773E+02  (-0.1596025E+02)
 number of electron      88.0000163 magnetization      20.8396077
 augmentation part       57.2153034 magnetization      12.6675396

 Broyden mixing:
  rms(total) = 0.86463E+00    rms(broyden)= 0.86362E+00
  rms(prec ) = 0.87367E+00
  weight for this iteration     100.00

 eigenvalues of (default mixing * dielectric matrix)
  average eigenvalue GAMMA=   0.8621
  1.0652  0.6589

 Free energy of the ion-electron system (eV)
  ---------------------------------------------------
  alpha Z        PSCENC =         1.73351831
  Ewald energy   TEWEN  =     10964.95593397
  -Hartree energ DENC   =    -21051.45253951
  -exchange      EXHF   =         0.00000000
  -V(xc)+E(xc)   XCENC  =       405.61839724
  PAW double counting   =     10108.45933393   -10984.71474936
  entropy T*S    EENTRO =         0.00000000
  eigenvalues    EBANDS =      -522.77495878
  atomic energy  EATOM  =     11127.48467726
  Solvation  Ediel_sol  =         0.00000000
  ---------------------------------------------------
  free energy    TOTEN  =        49.30961306 eV

  energy without entropy =       49.30961306  energy(sigma->0) =       49.30961306


--------------------------------------------------------------------------------------------------------




--------------------------------------- Iteration      1(   8)  ---------------------------------------


    POTLOK:  cpu time    0.9480: real time    0.9615
    SETDIJ:  cpu time    0.0120: real time    0.0123
     EDDAV:  cpu time    3.5320: real time    3.5319
       DOS:  cpu time    0.0000: real time    0.0005
    CHARGE:  cpu time    0.2800: real time    0.2790
    MIXING:  cpu time    0.0240: real time    0.0238
    --------------------------------------------
      LOOP:  cpu time    4.7960: real time    4.8091

 eigenvalue-minimisations  :   360
 total energy-change (2. order) : 0.8804075E+00  (-0.2046876E+01)
 number of electron      88.0000166 magnetization      20.1282409
 augmentation part       56.4142779 magnetization      11.7205754

 Broyden mixing:
  rms(total) = 0.74425E+00    rms(broyden)= 0.74353E+00
  rms(prec ) = 0.75831E+00
  weight for this iteration     100.00

 eigenvalues of (default mixing * dielectric matrix)
  average eigenvalue GAMMA=   0.8178
  1.1889  0.6323  0.6323

 Free energy of the ion-electron system (eV)
  ---------------------------------------------------
  alpha Z        PSCENC =         1.73351831
  Ewald energy   TEWEN  =     10964.95593397
  -Hartree energ DENC   =    -21090.19518521
  -exchange      EXHF   =         0.00000000
  -V(xc)+E(xc)   XCENC  =       406.90768380
  PAW double counting   =     10292.72913189   -11172.28035895
  entropy T*S    EENTRO =         0.00000000
  eigenvalues    EBANDS =      -481.14538056
  atomic energy  EATOM  =     11127.48467726
  Solvation  Ediel_sol  =         0.00000000
  ---------------------------------------------------
  free energy    TOTEN  =        50.19002052 eV

  energy without entropy =       50.19002052  energy(sigma->0) =       50.19002052


--------------------------------------------------------------------------------------------------------




--------------------------------------- Iteration      1(   9)  ---------------------------------------


    POTLOK:  cpu time    0.9480: real time    0.9587
    SETDIJ:  cpu time    0.0120: real time    0.0131
     EDDAV:  cpu time    3.4680: real time    3.4693
       DOS:  cpu time    0.0000: real time    0.0005
    CHARGE:  cpu time    0.2800: real time    0.2793
    MIXING:  cpu time    0.0280: real time    0.0256
    --------------------------------------------
      LOOP:  cpu time    4.7360: real time    4.7465

 eigenvalue-minimisations  :   352
 total energy-change (2. order) :-0.6380441E+01  (-0.4627920E+00)
 number of electron      88.0000165 magnetization      18.8544628
 augmentation part       56.5482098 magnetization      10.5809496

 Broyden mixing:
  rms(total) = 0.48496E+00    rms(broyden)= 0.48452E+00
  rms(prec ) = 0.48912E+00
  weight for this iteration     100.00

 eigenvalues of (default mixing * dielectric matrix)
  average eigenvalue GAMMA=   0.8589
  1.0781  1.0781  0.7783  0.5009

 Free energy of the ion-electron system (eV)
  ---------------------------------------------------
  alpha Z        PSCENC =         1.73351831
  Ewald energy   TEWEN  =     10964.95593397
  -Hartree energ DENC   =    -21085.65688066
  -exchange      EXHF   =         0.00000000
  -V(xc)+E(xc)   XCENC  =       401.19723325
  PAW double counting   =     10346.69276906   -11221.16711451
  entropy T*S    EENTRO =         0.00000000
  eigenvalues    EBANDS =      -491.43055698
  atomic energy  EATOM  =     11127.48467726
  Solvation  Ediel_sol  =         0.00000000
  ---------------------------------------------------
  free energy    TOTEN  =        43.80957970 eV

  energy without entropy =       43.80957970  energy(sigma->0) =       43.80957970


--------------------------------------------------------------------------------------------------------




--------------------------------------- Iteration      1(  10)  ---------------------------------------


    POTLOK:  cpu time    0.9480: real time    0.9587
    SETDIJ:  cpu time    0.0120: real time    0.0123
     EDDAV:  cpu time    3.5320: real time    3.5314
       DOS:  cpu time    0.0000: real time    0.0005
    CHARGE:  cpu time    0.2840: real time    0.2840
    MIXING:  cpu time    0.0280: real time    0.0267
    --------------------------------------------
      LOOP:  cpu time    4.8040: real time    4.8137

 eigenvalue-minimisations  :   360
 total energy-change (2. order) :-0.1643399E+02  (-0.8211936E+00)
 number of electron      88.0000159 magnetization      17.7902694
 augmentation part       56.7888918 magnetization      11.7061839

 Broyden mixing:
  rms(total) = 0.47997E+00    rms(broyden)= 0.47859E+00
  rms(prec ) = 0.49234E+00
  weight for this iteration     100.00

 eigenvalues of (default mixing * dielectric matrix)
  average eigenvalue GAMMA=   0.8679
  1.3362  1.3362  0.7253  0.5417  0.4000

 Free energy of the ion-electron system (eV)
  ---------------------------------------------------
  alpha Z        PSCENC =         1.73351831
  Ewald energy   TEWEN  =     10964.95593397
  -Hartree energ DENC   =    -21074.88332959
  -exchange      EXHF   =         0.00000000
  -V(xc)+E(xc)   XCENC  =       387.82802754
  PAW double counting   =     10384.79931947   -11249.53111031
  entropy T*S    EENTRO =        -0.00000000
  eigenvalues    EBANDS =      -515.01144365
  atomic energy  EATOM  =     11127.48467726
  Solvation  Ediel_sol  =         0.00000000
  ---------------------------------------------------
  free energy    TOTEN  =        27.37559301 eV

  energy without entropy =       27.37559301  energy(sigma->0) =       27.37559301


--------------------------------------------------------------------------------------------------------




--------------------------------------- Iteration      1(  11)  ---------------------------------------


    POTLOK:  cpu time    0.9480: real time    0.9611
    SETDIJ:  cpu time    0.0120: real time    0.0129
     EDDAV:  cpu time    3.4680: real time    3.4667
       DOS:  cpu time    0.0000: real time    0.0004
    CHARGE:  cpu time    0.2800: real time    0.2804
    MIXING:  cpu time    0.0280: real time    0.0286
    --------------------------------------------
      LOOP:  cpu time    4.7360: real time    4.7500

 eigenvalue-minimisations  :   352
 total energy-change (2. order) :-0.5121839E+01  (-0.3651327E+00)
 number of electron      88.0000160 magnetization      17.3362808
 augmentation part       56.7477861 magnetization      13.2311068

 Broyden mixing:
  rms(total) = 0.50777E+00    rms(broyden)= 0.50690E+00
  rms(prec ) = 0.51748E+00
  weight for this iteration     100.00

 eigenvalues of (default mixing * dielectric matrix)
  average eigenvalue GAMMA=   0.8045
  1.7223  1.1638  0.7515  0.4767  0.3562  0.3562

 Free energy of the ion-electron system (eV)
  ---------------------------------------------------
  alpha Z        PSCENC =         1.73351831
  Ewald energy   TEWEN  =     10964.95593397
  -Hartree energ DENC   =    -21083.10811266
  -exchange      EXHF   =         0.00000000
  -V(xc)+E(xc)   XCENC  =       384.39353445
  PAW double counting   =     10435.85461211   -11297.64553532
  entropy T*S    EENTRO =         0.00000000
  eigenvalues    EBANDS =      -511.41487401
  atomic energy  EATOM  =     11127.48467726
  Solvation  Ediel_sol  =         0.00000000
  ---------------------------------------------------
  free energy    TOTEN  =        22.25375411 eV

  energy without entropy =       22.25375411  energy(sigma->0) =       22.25375411


--------------------------------------------------------------------------------------------------------




--------------------------------------- Iteration      1(  12)  ---------------------------------------


    POTLOK:  cpu time    0.9480: real time    0.9619
    SETDIJ:  cpu time    0.0160: real time    0.0129
     EDDAV:  cpu time    3.5280: real time    3.5284
       DOS:  cpu time    0.0000: real time    0.0006
    CHARGE:  cpu time    0.2800: real time    0.2801
    MIXING:  cpu time    0.0280: real time    0.0300
    --------------------------------------------
      LOOP:  cpu time    4.8000: real time    4.8138

 eigenvalue-minimisations  :   360
 total energy-change (2. order) :-0.6856585E+00  (-0.1311608E+00)
 number of electron      88.0000161 magnetization      16.5912921
 augmentation part       56.6960618 magnetization      12.6629077

 Broyden mixing:
  rms(total) = 0.44483E+00    rms(broyden)= 0.44478E+00
  rms(prec ) = 0.45245E+00
  weight for this iteration     100.00

 eigenvalues of (default mixing * dielectric matrix)
  average eigenvalue GAMMA=   0.8637
  1.6460  1.6460  0.5864  0.5864  0.6743  0.5291  0.3777

 Free energy of the ion-electron system (eV)
  ---------------------------------------------------
  alpha Z        PSCENC =         1.73351831
  Ewald energy   TEWEN  =     10964.95593397
  -Hartree energ DENC   =    -21089.30645319
  -exchange      EXHF   =         0.00000000
  -V(xc)+E(xc)   XCENC  =       384.44665004
  PAW double counting   =     10460.03484231   -11321.55315081
  entropy T*S    EENTRO =         0.00000000
  eigenvalues    EBANDS =      -506.22792229
  atomic energy  EATOM  =     11127.48467726
  Solvation  Ediel_sol  =         0.00000000
  ---------------------------------------------------
  free energy    TOTEN  =        21.56809559 eV

  energy without entropy =       21.56809559  energy(sigma->0) =       21.56809559


--------------------------------------------------------------------------------------------------------




--------------------------------------- Iteration      1(  13)  ---------------------------------------


    POTLOK:  cpu time    0.9560: real time    0.9566
    SETDIJ:  cpu time    0.0120: real time    0.0128
     EDDAV:  cpu time    3.1680: real time    3.1681
       DOS:  cpu time    0.0040: real time    0.0006
    CHARGE:  cpu time    0.2800: real time    0.2803
    MIXING:  cpu time    0.0320: real time    0.0320
    --------------------------------------------
      LOOP:  cpu time    4.4520: real time    4.4504

 eigenvalue-minimisations  :   312
 total energy-change (2. order) :-0.5723517E+01  (-0.2503610E+00)
 number of electron      88.0000159 magnetization      14.2695006
 augmentation part       56.6929002 magnetization      10.6567199

 Broyden mixing:
  rms(total) = 0.39007E+00    rms(broyden)= 0.39005E+00
  rms(prec ) = 0.39692E+00
  weight for this iteration     100.00

 eigenvalues of (default mixing * dielectric matrix)
  average eigenvalue GAMMA=   1.0306
  2.3251  2.3251  0.7628  0.7628  0.5808  0.5808  0.5058  0.4019

 Free energy of the ion-electron system (eV)
  ---------------------------------------------------
  alpha Z        PSCENC =         1.73351831
  Ewald energy   TEWEN  =     10964.95593397
  -Hartree energ DENC   =    -21090.40374679
  -exchange      EXHF   =         0.00000000
  -V(xc)+E(xc)   XCENC  =       380.34767231
  PAW double counting   =     10459.10897458   -11319.11801191
  entropy T*S    EENTRO =         0.00000000
  eigenvalues    EBANDS =      -508.26443931
  atomic energy  EATOM  =     11127.48467726
  Solvation  Ediel_sol  =         0.00000000
  ---------------------------------------------------
  free energy    TOTEN  =        15.84457841 eV

  energy without entropy =       15.84457841  energy(sigma->0) =       15.84457841


--------------------------------------------------------------------------------------------------------




--------------------------------------- Iteration      1(  14)  ---------------------------------------


    POTLOK:  cpu time    0.9480: real time    0.9574
    SETDIJ:  cpu time    0.0120: real time    0.0124
     EDDAV:  cpu time    3.8360: real time    3.8348
       DOS:  cpu time    0.0000: real time    0.0006
    CHARGE:  cpu time    0.2800: real time    0.2805
    MIXING:  cpu time    0.0360: real time    0.0342
    --------------------------------------------
      LOOP:  cpu time    5.1120: real time    5.1200

 eigenvalue-minimisations  :   400
 total energy-change (2. order) :-0.1357004E+02  (-0.9325087E+00)
 number of electron      88.0000160 magnetization      12.0189746
 augmentation part       56.6562841 magnetization       9.0548011

 Broyden mixing:
  rms(total) = 0.27210E+00    rms(broyden)= 0.27197E+00
  rms(prec ) = 0.27516E+00
  weight for this iteration     100.00

 eigenvalues of (default mixing * dielectric matrix)
  average eigenvalue GAMMA=   1.0801
  3.5785  1.4800  1.2741  0.6577  0.6577  0.7142  0.4810  0.4810  0.3970

 Free energy of the ion-electron system (eV)
  ---------------------------------------------------
  alpha Z        PSCENC =         1.73351831
  Ewald energy   TEWEN  =     10964.95593397
  -Hartree energ DENC   =    -21095.92881947
  -exchange      EXHF   =         0.00000000
  -V(xc)+E(xc)   XCENC  =       369.58628239
  PAW double counting   =     10453.54299260   -11311.10113976
  entropy T*S    EENTRO =        -0.00000000
  eigenvalues    EBANDS =      -507.99890406
  atomic energy  EATOM  =     11127.48467726
  Solvation  Ediel_sol  =         0.00000000
  ---------------------------------------------------
  free energy    TOTEN  =         2.27454125 eV

  energy without entropy =        2.27454125  energy(sigma->0) =        2.27454125


--------------------------------------------------------------------------------------------------------




--------------------------------------- Iteration      1(  15)  ---------------------------------------


    POTLOK:  cpu time    0.9480: real time    0.9597
    SETDIJ:  cpu time    0.0120: real time    0.0124
     EDDAV:  cpu time    3.4680: real time    3.4679
       DOS:  cpu time    0.0000: real time    0.0005
    CHARGE:  cpu time    0.2800: real time    0.2807
    MIXING:  cpu time    0.0400: real time    0.0383
    --------------------------------------------
      LOOP:  cpu time    4.7480: real time    4.7595

 eigenvalue-minimisations  :   352
 total energy-change (2. order) :-0.7019376E+01  (-0.4701462E+00)
 number of electron      88.0000160 magnetization      10.5809405
 augmentation part       56.3475349 magnetization       8.0496613

 Broyden mixing:
  rms(total) = 0.21727E+00    rms(broyden)= 0.21720E+00
  rms(prec ) = 0.22303E+00
  weight for this iteration     100.00

 eigenvalues of (default mixing * dielectric matrix)
  average eigenvalue GAMMA=   1.1518
  4.3715  1.8586  0.9013  0.9013  0.7678  0.7678  0.5631  0.5631  0.4118  0.4118

 Free energy of the ion-electron system (eV)
  ---------------------------------------------------
  alpha Z        PSCENC =         1.73351831
  Ewald energy   TEWEN  =     10964.95593397
  -Hartree energ DENC   =    -21115.72149572
  -exchange      EXHF   =         0.00000000
  -V(xc)+E(xc)   XCENC  =       364.38843578
  PAW double counting   =     10494.68076690   -11353.88283923
  entropy T*S    EENTRO =         0.00000000
  eigenvalues    EBANDS =      -488.38383204
  atomic energy  EATOM  =     11127.48467726
  Solvation  Ediel_sol  =         0.00000000
  ---------------------------------------------------
  free energy    TOTEN  =        -4.74483476 eV

  energy without entropy =       -4.74483476  energy(sigma->0) =       -4.74483476


--------------------------------------------------------------------------------------------------------




--------------------------------------- Iteration      1(  16)  ---------------------------------------


    POTLOK:  cpu time    0.9600: real time    0.9615
    SETDIJ:  cpu time    0.0120: real time    0.0125
     EDDAV:  cpu time    3.2200: real time    3.2177
       DOS:  cpu time    0.0000: real time    0.0005
    CHARGE:  cpu time    0.2800: real time    0.2793
    MIXING:  cpu time    0.0400: real time    0.0430
    --------------------------------------------
      LOOP:  cpu time    4.5120: real time    4.5146

 eigenvalue-minimisations  :   320
 total energy-change (2. order) :-0.4027920E+01  (-0.1821651E+00)
 number of electron      88.0000158 magnetization      10.2258447
 augmentation part       56.3898047 magnetization       7.9668316

 Broyden mixing:
  rms(total) = 0.19007E+00    rms(broyden)= 0.19003E+00
  rms(prec ) = 0.19531E+00
  weight for this iteration     100.00

 eigenvalues of (default mixing * dielectric matrix)
  average eigenvalue GAMMA=   1.1308
  3.8678  2.3665  1.1436  1.1436  0.6680  0.6680  0.6280  0.6280  0.4558  0.4558
  0.4143

 Free energy of the ion-electron system (eV)
  ---------------------------------------------------
  alpha Z        PSCENC =         1.73351831
  Ewald energy   TEWEN  =     10964.95593397
  -Hartree energ DENC   =    -21109.85113120
  -exchange      EXHF   =         0.00000000
  -V(xc)+E(xc)   XCENC  =       360.83452098
  PAW double counting   =     10470.77531561   -11328.53982017
  entropy T*S    EENTRO =         0.00000000
  eigenvalues    EBANDS =      -496.16576998
  atomic energy  EATOM  =     11127.48467726
  Solvation  Ediel_sol  =         0.00000000
  ---------------------------------------------------
  free energy    TOTEN  =        -8.77275522 eV

  energy without entropy =       -8.77275522  energy(sigma->0) =       -8.77275522


--------------------------------------------------------------------------------------------------------




--------------------------------------- Iteration      1(  17)  ---------------------------------------


    POTLOK:  cpu time    0.9480: real time    0.9584
    SETDIJ:  cpu time    0.0160: real time    0.0129
     EDDAV:  cpu time    3.3960: real time    3.3963
       DOS:  cpu time    0.0000: real time    0.0006
    CHARGE:  cpu time    0.2800: real time    0.2798
    MIXING:  cpu time    0.0480: real time    0.0504
    --------------------------------------------
      LOOP:  cpu time    4.6880: real time    4.6984

 eigenvalue-minimisations  :   344
 total energy-change (2. order) :-0.2035991E+01  (-0.5810949E-01)
 number of electron      88.0000158 magnetization       8.9954427
 augmentation part       56.5105157 magnetization       6.7978703

 Broyden mixing:
  rms(total) = 0.12853E+00    rms(broyden)= 0.12850E+00
  rms(prec ) = 0.13108E+00
  weight for this iteration     100.00

 eigenvalues of (default mixing * dielectric matrix)
  average eigenvalue GAMMA=   1.2164
  3.6882  3.6882  1.2995  1.2995  0.7082  0.7082  0.6848  0.6848  0.5560  0.3970
  0.4411  0.4411

 Free energy of the ion-electron system (eV)
  ---------------------------------------------------
  alpha Z        PSCENC =         1.73351831
  Ewald energy   TEWEN  =     10964.95593397
  -Hartree energ DENC   =    -21094.78803283
  -exchange      EXHF   =         0.00000000
  -V(xc)+E(xc)   XCENC  =       358.77204030
  PAW double counting   =     10422.38076943   -11279.25261605
  entropy T*S    EENTRO =         0.00000000
  eigenvalues    EBANDS =      -512.09503693
  atomic energy  EATOM  =     11127.48467726
  Solvation  Ediel_sol  =         0.00000000
  ---------------------------------------------------
  free energy    TOTEN  =       -10.80874655 eV

  energy without entropy =      -10.80874655  energy(sigma->0) =      -10.80874655


--------------------------------------------------------------------------------------------------------




--------------------------------------- Iteration      1(  18)  ---------------------------------------


    POTLOK:  cpu time    0.9520: real time    0.9589
    SETDIJ:  cpu time    0.0120: real time    0.0124
     EDDAV:  cpu time    3.5760: real time    3.5774
       DOS:  cpu time    0.0040: real time    0.0006
    CHARGE:  cpu time    0.2760: real time    0.2791
    MIXING:  cpu time    0.0600: real time    0.0591
    --------------------------------------------
      LOOP:  cpu time    4.8800: real time    4.8875

 eigenvalue-minimisations  :   368
 total energy-change (2. order) :-0.2372462E+01  (-0.6124914E-01)
 number of electron      88.0000159 magnetization       7.8816806
 augmentation part       56.5487753 magnetization       5.7617730

 Broyden mixing:
  rms(total) = 0.10366E+00    rms(broyden)= 0.10363E+00
  rms(prec ) = 0.10572E+00
  weight for this iteration     100.00

 eigenvalues of (default mixing * dielectric matrix)
  average eigenvalue GAMMA=   1.2553
  4.0476  4.0476  1.4003  1.1172  1.1172  0.6793  0.6793  0.7491  0.6544  0.4998
  0.4930  0.4172  0.4172

 Free energy of the ion-electron system (eV)
  ---------------------------------------------------
  alpha Z        PSCENC =         1.73351831
  Ewald energy   TEWEN  =     10964.95593397
  -Hartree energ DENC   =    -21083.34151150
  -exchange      EXHF   =         0.00000000
  -V(xc)+E(xc)   XCENC  =       356.49889471
  PAW double counting   =     10380.43688888   -11237.53442139
  entropy T*S    EENTRO =         0.00000000
  eigenvalues    EBANDS =      -523.41518926
  atomic energy  EATOM  =     11127.48467726
  Solvation  Ediel_sol  =         0.00000000
  ---------------------------------------------------
  free energy    TOTEN  =       -13.18120901 eV

  energy without entropy =      -13.18120901  energy(sigma->0) =      -13.18120901


--------------------------------------------------------------------------------------------------------




--------------------------------------- Iteration      1(  19)  ---------------------------------------


    POTLOK:  cpu time    0.9480: real time    0.9556
    SETDIJ:  cpu time    0.0120: real time    0.0125
     EDDAV:  cpu time    3.2160: real time    3.2153
       DOS:  cpu time    0.0000: real time    0.0004
    CHARGE:  cpu time    0.2800: real time    0.2803
    MIXING:  cpu time    0.0680: real time    0.0660
    --------------------------------------------
      LOOP:  cpu time    4.5240: real time    4.5301

 eigenvalue-minimisations  :   320
 total energy-change (2. order) :-0.9301482E+00  (-0.2379778E-01)
 number of electron      88.0000159 magnetization       6.8418700
 augmentation part       56.4860217 magnetization       4.7928678

 Broyden mixing:
  rms(total) = 0.73713E-01    rms(broyden)= 0.73696E-01
  rms(prec ) = 0.75925E-01
  weight for this iteration     100.00

 eigenvalues of (default mixing * dielectric matrix)
  average eigenvalue GAMMA=   1.3125
  5.7338  3.0024  2.0626  1.2068  1.2068  0.6861  0.6861  0.7080  0.7080  0.5565
  0.5565  0.4040  0.4285  0.4285

 Free energy of the ion-electron system (eV)
  ---------------------------------------------------
  alpha Z        PSCENC =         1.73351831
  Ewald energy   TEWEN  =     10964.95593397
  -Hartree energ DENC   =    -21082.40300328
  -exchange      EXHF   =         0.00000000
  -V(xc)+E(xc)   XCENC  =       355.71783375
  PAW double counting   =     10371.27021523   -11229.46771677
  entropy T*S    EENTRO =         0.00000000
  eigenvalues    EBANDS =      -523.40281568
  atomic energy  EATOM  =     11127.48467726
  Solvation  Ediel_sol  =         0.00000000
  ---------------------------------------------------
  free energy    TOTEN  =       -14.11135722 eV

  energy without entropy =      -14.11135722  energy(sigma->0) =      -14.11135722


--------------------------------------------------------------------------------------------------------




--------------------------------------- Iteration      1(  20)  ---------------------------------------


    POTLOK:  cpu time    0.9440: real time    0.9565
    SETDIJ:  cpu time    0.0160: real time    0.0125
     EDDAV:  cpu time    3.5120: real time    3.5142
       DOS:  cpu time    0.0000: real time    0.0005
    CHARGE:  cpu time    0.2800: real time    0.2804
    MIXING:  cpu time    0.0760: real time    0.0738
    --------------------------------------------
      LOOP:  cpu time    4.8280: real time    4.8378

 eigenvalue-minimisations  :   360
 total energy-change (2. order) :-0.5571264E+00  (-0.1052690E-01)
 number of electron      88.0000159 magnetization       5.9452764
 augmentation part       56.4595191 magnetization       3.9444384

 Broyden mixing:
  rms(total) = 0.52127E-01    rms(broyden)= 0.52116E-01
  rms(prec ) = 0.53406E-01
  weight for this iteration     100.00

 eigenvalues of (default mixing * dielectric matrix)
  average eigenvalue GAMMA=   1.3793
  6.4574  3.4388  2.0153  1.3498  1.1495  1.1495  0.6831  0.6831  0.7099  0.7099
  0.5406  0.5406  0.4017  0.4300  0.4300

 Free energy of the ion-electron system (eV)
  ---------------------------------------------------
  alpha Z        PSCENC =         1.73351831
  Ewald energy   TEWEN  =     10964.95593397
  -Hartree energ DENC   =    -21078.55654871
  -exchange      EXHF   =         0.00000000
  -V(xc)+E(xc)   XCENC  =       355.16516734
  PAW double counting   =     10364.33004157   -11223.08086570
  entropy T*S    EENTRO =         0.00000000
  eigenvalues    EBANDS =      -526.70040763
  atomic energy  EATOM  =     11127.48467726
  Solvation  Ediel_sol  =         0.00000000
  ---------------------------------------------------
  free energy    TOTEN  =       -14.66848359 eV

  energy without entropy =      -14.66848359  energy(sigma->0) =      -14.66848359


--------------------------------------------------------------------------------------------------------




--------------------------------------- Iteration      1(  21)  ---------------------------------------


    POTLOK:  cpu time    0.9520: real time    0.9604
    SETDIJ:  cpu time    0.0120: real time    0.0124
     EDDAV:  cpu time    3.4560: real time    3.4585
       DOS:  cpu time    0.0040: real time    0.0006
    CHARGE:  cpu time    0.2760: real time    0.2787
    MIXING:  cpu time    0.0800: real time    0.0803
    --------------------------------------------
      LOOP:  cpu time    4.7800: real time    4.7910

 eigenvalue-minimisations  :   352
 total energy-change (2. order) :-0.4735081E+00  (-0.5357143E-02)
 number of electron      88.0000159 magnetization       5.1328503
 augmentation part       56.5096962 magnetization       3.1520553

 Broyden mixing:
  rms(total) = 0.40513E-01    rms(broyden)= 0.40505E-01
  rms(prec ) = 0.41243E-01
  weight for this iteration     100.00

 eigenvalues of (default mixing * dielectric matrix)
  average eigenvalue GAMMA=   1.4609
  7.5047  3.0623  3.0623  1.3016  1.2015  1.2015  0.8342  0.8342  0.6814  0.6814
  0.6461  0.5474  0.5474  0.4039  0.4320  0.4320

 Free energy of the ion-electron system (eV)
  ---------------------------------------------------
  alpha Z        PSCENC =         1.73351831
  Ewald energy   TEWEN  =     10964.95593397
  -Hartree energ DENC   =    -21071.45147263
  -exchange      EXHF   =         0.00000000
  -V(xc)+E(xc)   XCENC  =       354.55602678
  PAW double counting   =     10355.04313448   -11213.52012826
  entropy T*S    EENTRO =         0.00000000
  eigenvalues    EBANDS =      -533.94368159
  atomic energy  EATOM  =     11127.48467726
  Solvation  Ediel_sol  =         0.00000000
  ---------------------------------------------------
  free energy    TOTEN  =       -15.14199167 eV

  energy without entropy =      -15.14199167  energy(sigma->0) =      -15.14199167


--------------------------------------------------------------------------------------------------------




--------------------------------------- Iteration      1(  22)  ---------------------------------------


    POTLOK:  cpu time    0.9520: real time    0.9587
    SETDIJ:  cpu time    0.0120: real time    0.0126
     EDDAV:  cpu time    3.2760: real time    3.2788
       DOS:  cpu time    0.0040: real time    0.0005
    CHARGE:  cpu time    0.2760: real time    0.2789
    MIXING:  cpu time    0.0880: real time    0.0887
    --------------------------------------------
      LOOP:  cpu time    4.6080: real time    4.6182

 eigenvalue-minimisations  :   328
 total energy-change (2. order) :-0.3793646E+00  (-0.1719091E-02)
 number of electron      88.0000159 magnetization       4.6581870
 augmentation part       56.4925638 magnetization       2.6799497

 Broyden mixing:
  rms(total) = 0.28209E-01    rms(broyden)= 0.28205E-01
  rms(prec ) = 0.28730E-01
  weight for this iteration     100.00

 eigenvalues of (default mixing * dielectric matrix)
  average eigenvalue GAMMA=   1.4809
  8.2257  3.0789  3.0789  1.6646  1.1518  1.1518  0.6801  0.6801  0.9075  0.7981
  0.7981  0.6072  0.5426  0.5426  0.4039  0.4317  0.4317

 Free energy of the ion-electron system (eV)
  ---------------------------------------------------
  alpha Z        PSCENC =         1.73351831
  Ewald energy   TEWEN  =     10964.95593397
  -Hartree energ DENC   =    -21069.73591102
  -exchange      EXHF   =         0.00000000
  -V(xc)+E(xc)   XCENC  =       354.18119182
  PAW double counting   =     10358.00504759   -11216.85994954
  entropy T*S    EENTRO =         0.00000000
  eigenvalues    EBANDS =      -535.28586472
  atomic energy  EATOM  =     11127.48467726
  Solvation  Ediel_sol  =         0.00000000
  ---------------------------------------------------
  free energy    TOTEN  =       -15.52135632 eV

  energy without entropy =      -15.52135632  energy(sigma->0) =      -15.52135632


--------------------------------------------------------------------------------------------------------




--------------------------------------- Iteration      1(  23)  ---------------------------------------


    POTLOK:  cpu time    0.9520: real time    0.9569
    SETDIJ:  cpu time    0.0120: real time    0.0126
     EDDAV:  cpu time    3.2760: real time    3.2765
       DOS:  cpu time    0.0000: real time    0.0006
    CHARGE:  cpu time    0.2800: real time    0.2786
    MIXING:  cpu time    0.0960: real time    0.0960
    --------------------------------------------
      LOOP:  cpu time    4.6160: real time    4.6212

 eigenvalue-minimisations  :   328
 total energy-change (2. order) :-0.2229367E+00  (-0.7106794E-03)
 number of electron      88.0000159 magnetization       4.0983811
 augmentation part       56.4860232 magnetization       2.1287101

 Broyden mixing:
  rms(total) = 0.23897E-01    rms(broyden)= 0.23895E-01
  rms(prec ) = 0.24358E-01
  weight for this iteration     100.00

 eigenvalues of (default mixing * dielectric matrix)
  average eigenvalue GAMMA=   1.5218
  8.7557  3.3389  2.5970  2.5970  1.2268  1.2268  0.9958  0.9958  0.6804  0.6804
  0.7620  0.6700  0.4038  0.4316  0.4316  0.5466  0.5466  0.5051

 Free energy of the ion-electron system (eV)
  ---------------------------------------------------
  alpha Z        PSCENC =         1.73351831
  Ewald energy   TEWEN  =     10964.95593397
  -Hartree energ DENC   =    -21068.82033712
  -exchange      EXHF   =         0.00000000
  -V(xc)+E(xc)   XCENC  =       353.94978392
  PAW double counting   =     10359.31160519   -11218.22105618
  entropy T*S    EENTRO =         0.00000000
  eigenvalues    EBANDS =      -536.13841834
  atomic energy  EATOM  =     11127.48467726
  Solvation  Ediel_sol  =         0.00000000
  ---------------------------------------------------
  free energy    TOTEN  =       -15.74429299 eV

  energy without entropy =      -15.74429299  energy(sigma->0) =      -15.74429299


--------------------------------------------------------------------------------------------------------




--------------------------------------- Iteration      1(  24)  ---------------------------------------


    POTLOK:  cpu time    0.9480: real time    0.9591
    SETDIJ:  cpu time    0.0160: real time    0.0124
     EDDAV:  cpu time    3.3960: real time    3.3972
       DOS:  cpu time    0.0000: real time    0.0006
    CHARGE:  cpu time    0.2800: real time    0.2792
    MIXING:  cpu time    0.1040: real time    0.1039
    --------------------------------------------
      LOOP:  cpu time    4.7440: real time    4.7524

 eigenvalue-minimisations  :   344
 total energy-change (2. order) :-0.2328925E+00  (-0.5015249E-03)
 number of electron      88.0000159 magnetization       3.5278542
 augmentation part       56.4953548 magnetization       1.5596488

 Broyden mixing:
  rms(total) = 0.17849E-01    rms(broyden)= 0.17847E-01
  rms(prec ) = 0.18117E-01
  weight for this iteration     100.00

 eigenvalues of (default mixing * dielectric matrix)
  average eigenvalue GAMMA=   1.5602
  9.1485  3.9033  2.6975  2.6975  1.4367  1.1316  1.1316  1.0901  0.6804  0.6804
  0.7893  0.7893  0.6042  0.5499  0.5499  0.4039  0.4318  0.4318  0.4963

 Free energy of the ion-electron system (eV)
  ---------------------------------------------------
  alpha Z        PSCENC =         1.73351831
  Ewald energy   TEWEN  =     10964.95593397
  -Hartree energ DENC   =    -21067.17930236
  -exchange      EXHF   =         0.00000000
  -V(xc)+E(xc)   XCENC  =       353.68923675
  PAW double counting   =     10360.96918706   -11219.73848833
  entropy T*S    EENTRO =         0.00000000
  eigenvalues    EBANDS =      -537.89194816
  atomic energy  EATOM  =     11127.48467726
  Solvation  Ediel_sol  =         0.00000000
  ---------------------------------------------------
  free energy    TOTEN  =       -15.97718549 eV

  energy without entropy =      -15.97718549  energy(sigma->0) =      -15.97718549


--------------------------------------------------------------------------------------------------------




--------------------------------------- Iteration      1(  25)  ---------------------------------------


    POTLOK:  cpu time    0.9520: real time    0.9592
    SETDIJ:  cpu time    0.0160: real time    0.0127
     EDDAV:  cpu time    3.5160: real time    3.5167
       DOS:  cpu time    0.0000: real time    0.0005
    CHARGE:  cpu time    0.2760: real time    0.2787
    MIXING:  cpu time    0.1120: real time    0.1119
    --------------------------------------------
      LOOP:  cpu time    4.8760: real time    4.8797

 eigenvalue-minimisations  :   360
 total energy-change (2. order) :-0.2406965E+00  (-0.2842886E-03)
 number of electron      88.0000159 magnetization       3.1062064
 augmentation part       56.4805605 magnetization       1.1290587

 Broyden mixing:
  rms(total) = 0.13581E-01    rms(broyden)= 0.13579E-01
  rms(prec ) = 0.13764E-01
  weight for this iteration     100.00

 eigenvalues of (default mixing * dielectric matrix)
  average eigenvalue GAMMA=   1.6246
  9.6725  4.6881  2.8996  2.8996  1.3724  1.3724  1.1633  1.1633  0.6803  0.6803
  0.8513  0.8513  0.7419  0.4039  0.4317  0.4317  0.5902  0.5464  0.5464  0.5058

 Free energy of the ion-electron system (eV)
  ---------------------------------------------------
  alpha Z        PSCENC =         1.73351831
  Ewald energy   TEWEN  =     10964.95593397
  -Hartree energ DENC   =    -21067.06531345
  -exchange      EXHF   =         0.00000000
  -V(xc)+E(xc)   XCENC  =       353.47239631
  PAW double counting   =     10367.82790930   -11226.66686336
  entropy T*S    EENTRO =         0.00000000
  eigenvalues    EBANDS =      -537.96014031
  atomic energy  EATOM  =     11127.48467726
  Solvation  Ediel_sol  =         0.00000000
  ---------------------------------------------------
  free energy    TOTEN  =       -16.21788196 eV

  energy without entropy =      -16.21788196  energy(sigma->0) =      -16.21788196


--------------------------------------------------------------------------------------------------------




--------------------------------------- Iteration      1(  26)  ---------------------------------------


    POTLOK:  cpu time    0.9560: real time    0.9578
    SETDIJ:  cpu time    0.0120: real time    0.0127
     EDDAV:  cpu time    3.7000: real time    3.6986
       DOS:  cpu time    0.0000: real time    0.0004
    CHARGE:  cpu time    0.2800: real time    0.2794
    MIXING:  cpu time    0.1200: real time    0.1204
    --------------------------------------------
      LOOP:  cpu time    5.0640: real time    5.0694

 eigenvalue-minimisations  :   384
 total energy-change (2. order) :-0.1510108E+00  (-0.1201051E-03)
 number of electron      88.0000159 magnetization       2.7934376
 augmentation part       56.4825077 magnetization       0.8205201

 Broyden mixing:
  rms(total) = 0.92573E-02    rms(broyden)= 0.92566E-02
  rms(prec ) = 0.93818E-02
  weight for this iteration     100.00

 eigenvalues of (default mixing * dielectric matrix)
  average eigenvalue GAMMA=   1.6555
 10.0846  5.3288  2.9183  2.9183  1.7811  1.2312  1.2312  1.1360  1.1360  0.6804
  0.6804  0.7634  0.7634  0.6280  0.6280  0.4038  0.4316  0.4316  0.5434  0.5434
  0.5036

 Free energy of the ion-electron system (eV)
  ---------------------------------------------------
  alpha Z        PSCENC =         1.73351831
  Ewald energy   TEWEN  =     10964.95593397
  -Hartree energ DENC   =    -21066.16328947
  -exchange      EXHF   =         0.00000000
  -V(xc)+E(xc)   XCENC  =       353.31412687
  PAW double counting   =     10368.11334176   -11226.87999993
  entropy T*S    EENTRO =         0.00000000
  eigenvalues    EBANDS =      -538.92720154
  atomic energy  EATOM  =     11127.48467726
  Solvation  Ediel_sol  =         0.00000000
  ---------------------------------------------------
  free energy    TOTEN  =       -16.36889277 eV

  energy without entropy =      -16.36889277  energy(sigma->0) =      -16.36889277


--------------------------------------------------------------------------------------------------------




--------------------------------------- Iteration      1(  27)  ---------------------------------------


    POTLOK:  cpu time    0.9480: real time    0.9938
    SETDIJ:  cpu time    0.0120: real time    0.0126
     EDDAV:  cpu time    3.3360: real time    3.3339
       DOS:  cpu time    0.0000: real time    0.0004
    CHARGE:  cpu time    0.2800: real time    0.2801
    MIXING:  cpu time    0.1280: real time    0.1292
    --------------------------------------------
      LOOP:  cpu time    4.7040: real time    4.7501

 eigenvalue-minimisations  :   336
 total energy-change (2. order) :-0.1034443E+00  (-0.3840098E-04)
 number of electron      88.0000159 magnetization       2.5426288
 augmentation part       56.4833367 magnetization       0.5704931

 Broyden mixing:
  rms(total) = 0.66868E-02    rms(broyden)= 0.66863E-02
  rms(prec ) = 0.67808E-02
  weight for this iteration     100.00

 eigenvalues of (default mixing * dielectric matrix)
  average eigenvalue GAMMA=   1.7239
 10.5122  6.3841  3.0480  3.0480  2.1890  1.2739  1.2739  1.1527  1.1527  0.6803
  0.6803  0.8367  0.8367  0.7664  0.6532  0.4038  0.4316  0.4316  0.5571  0.5571
  0.5491  0.5068

 Free energy of the ion-electron system (eV)
  ---------------------------------------------------
  alpha Z        PSCENC =         1.73351831
  Ewald energy   TEWEN  =     10964.95593397
  -Hartree energ DENC   =    -21065.65132827
  -exchange      EXHF   =         0.00000000
  -V(xc)+E(xc)   XCENC  =       353.21085463
  PAW double counting   =     10368.41156249   -11227.12952160
  entropy T*S    EENTRO =         0.00000000
  eigenvalues    EBANDS =      -539.48803390
  atomic energy  EATOM  =     11127.48467726
  Solvation  Ediel_sol  =         0.00000000
  ---------------------------------------------------
  free energy    TOTEN  =       -16.47233711 eV

  energy without entropy =      -16.47233711  energy(sigma->0) =      -16.47233711


--------------------------------------------------------------------------------------------------------




--------------------------------------- Iteration      1(  28)  ---------------------------------------


    POTLOK:  cpu time    0.9480: real time    0.9581
    SETDIJ:  cpu time    0.0120: real time    0.0123
     EDDAV:  cpu time    3.7000: real time    3.7009
       DOS:  cpu time    0.0000: real time    0.0004
    CHARGE:  cpu time    0.2800: real time    0.2794
    MIXING:  cpu time    0.1400: real time    0.1382
    --------------------------------------------
      LOOP:  cpu time    5.0800: real time    5.0893

 eigenvalue-minimisations  :   384
 total energy-change (2. order) :-0.6775079E-01  (-0.2637353E-04)
 number of electron      88.0000159 magnetization       2.3654406
 augmentation part       56.4850925 magnetization       0.3917790

 Broyden mixing:
  rms(total) = 0.48783E-02    rms(broyden)= 0.48775E-02
  rms(prec ) = 0.49662E-02
  weight for this iteration     100.00

 eigenvalues of (default mixing * dielectric matrix)
  average eigenvalue GAMMA=   1.7647
 11.1608  7.0358  3.1144  3.1144  2.5166  1.3751  1.3751  1.1500  1.1500  0.6803
  0.6803  0.8634  0.7973  0.7973  0.7275  0.4039  0.4317  0.4317  0.5976  0.5976
  0.5446  0.5446  0.4990

 Free energy of the ion-electron system (eV)
  ---------------------------------------------------
  alpha Z        PSCENC =         1.73351831
  Ewald energy   TEWEN  =     10964.95593397
  -Hartree energ DENC   =    -21065.11817898
  -exchange      EXHF   =         0.00000000
  -V(xc)+E(xc)   XCENC  =       353.14042138
  PAW double counting   =     10367.21476965   -11225.92820156
  entropy T*S    EENTRO =        -0.00000000
  eigenvalues    EBANDS =      -540.02302794
  atomic energy  EATOM  =     11127.48467726
  Solvation  Ediel_sol  =         0.00000000
  ---------------------------------------------------
  free energy    TOTEN  =       -16.54008790 eV

  energy without entropy =      -16.54008790  energy(sigma->0) =      -16.54008790


--------------------------------------------------------------------------------------------------------




--------------------------------------- Iteration      1(  29)  ---------------------------------------


    POTLOK:  cpu time    0.9480: real time    0.9577
    SETDIJ:  cpu time    0.0120: real time    0.0126
     EDDAV:  cpu time    3.5760: real time    3.5741
       DOS:  cpu time    0.0000: real time    0.0006
    CHARGE:  cpu time    0.2800: real time    0.2793
    MIXING:  cpu time    0.1480: real time    0.1475
    --------------------------------------------
      LOOP:  cpu time    4.9640: real time    4.9717

 eigenvalue-minimisations  :   368
 total energy-change (2. order) :-0.3153880E-01  (-0.1408622E-04)
 number of electron      88.0000159 magnetization       2.2006628
 augmentation part       56.4856454 magnetization       0.2287905

 Broyden mixing:
  rms(total) = 0.34518E-02    rms(broyden)= 0.34514E-02
  rms(prec ) = 0.35177E-02
  weight for this iteration     100.00

 eigenvalues of (default mixing * dielectric matrix)
  average eigenvalue GAMMA=   1.8441
 11.9910  7.6855  3.7338  2.8965  2.8965  1.5272  1.5272  1.1506  1.1506  1.0985
  0.6803  0.6803  0.8814  0.8814  0.7336  0.7336  0.4038  0.4317  0.4317  0.5811
  0.5811  0.5385  0.5385  0.5041

 Free energy of the ion-electron system (eV)
  ---------------------------------------------------
  alpha Z        PSCENC =         1.73351831
  Ewald energy   TEWEN  =     10964.95593397
  -Hartree energ DENC   =    -21064.98815398
  -exchange      EXHF   =         0.00000000
  -V(xc)+E(xc)   XCENC  =       353.10765629
  PAW double counting   =     10366.37525958   -11225.10946375
  entropy T*S    EENTRO =         0.00000000
  eigenvalues    EBANDS =      -540.13105438
  atomic energy  EATOM  =     11127.48467726
  Solvation  Ediel_sol  =         0.00000000
  ---------------------------------------------------
  free energy    TOTEN  =       -16.57162670 eV

  energy without entropy =      -16.57162670  energy(sigma->0) =      -16.57162670


--------------------------------------------------------------------------------------------------------




--------------------------------------- Iteration      1(  30)  ---------------------------------------


    POTLOK:  cpu time    0.9440: real time    0.9556
    SETDIJ:  cpu time    0.0160: real time    0.0128
     EDDAV:  cpu time    3.2720: real time    3.2730
       DOS:  cpu time    0.0000: real time    0.0007
    CHARGE:  cpu time    0.2800: real time    0.2794
    MIXING:  cpu time    0.1560: real time    0.1570
    --------------------------------------------
      LOOP:  cpu time    4.6680: real time    4.6785

 eigenvalue-minimisations  :   328
 total energy-change (2. order) :-0.2660313E-01  (-0.8705011E-05)
 number of electron      88.0000159 magnetization       2.1182258
 augmentation part       56.4849860 magnetization       0.1466251

 Broyden mixing:
  rms(total) = 0.21663E-02    rms(broyden)= 0.21660E-02
  rms(prec ) = 0.22101E-02
  weight for this iteration     100.00

 eigenvalues of (default mixing * dielectric matrix)
  average eigenvalue GAMMA=   1.8883
 12.6224  8.0899  4.2272  2.9748  2.9748  1.9263  1.3165  1.3165  1.1533  1.1533
  0.6803  0.6803  0.9292  0.9292  0.7758  0.7758  0.4038  0.4317  0.4317  0.6452
  0.5989  0.5498  0.5498  0.5620  0.5094

 Free energy of the ion-electron system (eV)
  ---------------------------------------------------
  alpha Z        PSCENC =         1.73351831
  Ewald energy   TEWEN  =     10964.95593397
  -Hartree energ DENC   =    -21065.04663251
  -exchange      EXHF   =         0.00000000
  -V(xc)+E(xc)   XCENC  =       353.08274733
  PAW double counting   =     10366.04139854   -11224.81800663
  entropy T*S    EENTRO =         0.00000000
  eigenvalues    EBANDS =      -540.03186611
  atomic energy  EATOM  =     11127.48467726
  Solvation  Ediel_sol  =         0.00000000
  ---------------------------------------------------
  free energy    TOTEN  =       -16.59822984 eV

  energy without entropy =      -16.59822984  energy(sigma->0) =      -16.59822984


--------------------------------------------------------------------------------------------------------




--------------------------------------- Iteration      1(  31)  ---------------------------------------


    POTLOK:  cpu time    0.9520: real time    0.9618
    SETDIJ:  cpu time    0.0120: real time    0.0127
     EDDAV:  cpu time    2.5040: real time    2.5019
       DOS:  cpu time    0.0000: real time    0.0005
    CHARGE:  cpu time    0.2800: real time    0.2802
    MIXING:  cpu time    0.1640: real time    0.1647
    --------------------------------------------
      LOOP:  cpu time    3.9120: real time    3.9218

 eigenvalue-minimisations  :   224
 total energy-change (2. order) :-0.1316782E-01  (-0.3307577E-05)
 number of electron      88.0000159 magnetization       2.0688191
 augmentation part       56.4846004 magnetization       0.0974439

 Broyden mixing:
  rms(total) = 0.16118E-02    rms(broyden)= 0.16117E-02
  rms(prec ) = 0.16430E-02
  weight for this iteration     100.00

 eigenvalues of (default mixing * dielectric matrix)
  average eigenvalue GAMMA=   1.9305
 13.1597  8.3556  4.8087  2.9704  2.9704  2.3590  1.4658  1.4658  1.1491  1.1491
  0.6803  0.6803  0.9634  0.9634  0.9225  0.7556  0.7556  0.4038  0.4317  0.4317
  0.5970  0.5970  0.5485  0.5485  0.5089  0.5511

 Free energy of the ion-electron system (eV)
  ---------------------------------------------------
  alpha Z        PSCENC =         1.73351831
  Ewald energy   TEWEN  =     10964.95593397
  -Hartree energ DENC   =    -21065.09409456
  -exchange      EXHF   =         0.00000000
  -V(xc)+E(xc)   XCENC  =       353.07018350
  PAW double counting   =     10365.94420784   -11224.73053143
  entropy T*S    EENTRO =         0.00000000
  eigenvalues    EBANDS =      -539.97529256
  atomic energy  EATOM  =     11127.48467726
  Solvation  Ediel_sol  =         0.00000000
  ---------------------------------------------------
  free energy    TOTEN  =       -16.61139766 eV

  energy without entropy =      -16.61139766  energy(sigma->0) =      -16.61139766


--------------------------------------------------------------------------------------------------------




--------------------------------------- Iteration      1(  32)  ---------------------------------------


    POTLOK:  cpu time    0.9480: real time    0.9586
    SETDIJ:  cpu time    0.0120: real time    0.0127
     EDDAV:  cpu time    2.7440: real time    2.7429
       DOS:  cpu time    0.0000: real time    0.0006
    CHARGE:  cpu time    0.2800: real time    0.2790
    MIXING:  cpu time    0.1720: real time    0.1711
    --------------------------------------------
      LOOP:  cpu time    4.1560: real time    4.1650

 eigenvalue-minimisations  :   256
 total energy-change (2. order) :-0.7525805E-02  (-0.3334746E-05)
 number of electron      88.0000159 magnetization       2.0416564
 augmentation part       56.4854063 magnetization       0.0704885

 Broyden mixing:
  rms(total) = 0.11252E-02    rms(broyden)= 0.11251E-02
  rms(prec ) = 0.11552E-02
  weight for this iteration     100.00

 eigenvalues of (default mixing * dielectric matrix)
  average eigenvalue GAMMA=   1.9609
 13.5638  8.6753  5.1661  3.0240  2.9001  2.9001  1.6008  1.4293  1.1540  1.1540
  1.1059  1.1059  0.6803  0.6803  0.8836  0.7875  0.7875  0.7031  0.4038  0.4317
  0.4317  0.6189  0.5746  0.5746  0.5498  0.5498  0.5091

 Free energy of the ion-electron system (eV)
  ---------------------------------------------------
  alpha Z        PSCENC =         1.73351831
  Ewald energy   TEWEN  =     10964.95593397
  -Hartree energ DENC   =    -21065.11968403
  -exchange      EXHF   =         0.00000000
  -V(xc)+E(xc)   XCENC  =       353.06152993
  PAW double counting   =     10366.01662072   -11224.78598392
  entropy T*S    EENTRO =         0.00000000
  eigenvalues    EBANDS =      -539.96553572
  atomic energy  EATOM  =     11127.48467726
  Solvation  Ediel_sol  =         0.00000000
  ---------------------------------------------------
  free energy    TOTEN  =       -16.61892347 eV

  energy without entropy =      -16.61892347  energy(sigma->0) =      -16.61892347


--------------------------------------------------------------------------------------------------------




--------------------------------------- Iteration      1(  33)  ---------------------------------------


    POTLOK:  cpu time    0.9480: real time    0.9620
    SETDIJ:  cpu time    0.0120: real time    0.0122
     EDDAV:  cpu time    2.5640: real time    2.5630
       DOS:  cpu time    0.0000: real time    0.0005
    CHARGE:  cpu time    0.2800: real time    0.2797
    MIXING:  cpu time    0.1760: real time    0.1768
    --------------------------------------------
      LOOP:  cpu time    3.9800: real time    3.9942

 eigenvalue-minimisations  :   232
 total energy-change (2. order) :-0.3565196E-02  (-0.1702471E-05)
 number of electron      88.0000159 magnetization       2.0196106
 augmentation part       56.4853981 magnetization       0.0478542

 Broyden mixing:
  rms(total) = 0.76937E-03    rms(broyden)= 0.76927E-03
  rms(prec ) = 0.79370E-03
  weight for this iteration     100.00

 eigenvalues of (default mixing * dielectric matrix)
  average eigenvalue GAMMA=   1.9963
 13.9706  8.8022  5.8343  3.2451  2.9825  2.9825  1.8109  1.4844  1.1537  1.1537
  1.2155  1.2155  0.6803  0.6803  0.9114  0.9114  0.7748  0.7748  0.4038  0.4317
  0.4317  0.6687  0.6140  0.6140  0.5483  0.5483  0.5104  0.5423

 Free energy of the ion-electron system (eV)
  ---------------------------------------------------
  alpha Z        PSCENC =         1.73351831
  Ewald energy   TEWEN  =     10964.95593397
  -Hartree energ DENC   =    -21065.19137058
  -exchange      EXHF   =         0.00000000
  -V(xc)+E(xc)   XCENC  =       353.05886478
  PAW double counting   =     10366.23851840   -11225.00077772
  entropy T*S    EENTRO =         0.00000000
  eigenvalues    EBANDS =      -539.90185308
  atomic energy  EATOM  =     11127.48467726
  Solvation  Ediel_sol  =         0.00000000
  ---------------------------------------------------
  free energy    TOTEN  =       -16.62248867 eV

[...]
     53      -0.9062      0.00000
     54      -0.8231      0.00000
     55      -0.4748      0.00000
     56      -0.1259      0.00000
     57      -0.0058      0.00000
     58       0.1203      0.00000
     59       0.1425      0.00000
     60       0.1435      0.00000
     61       0.1536      0.00000
     62       0.1659      0.00000
     63       0.1865      0.00000
     64       0.2077      0.00000

 spin component 2

 k-point     1 :       0.0000    0.0000    0.0000
  band No.  band energies     occupation 
      1      -9.2267      1.00000
      2      -7.7260      1.00000
      3      -7.6822      1.00000
      4      -7.2946      1.00000
      5      -7.1355      1.00000
      6      -7.0120      1.00000
      7      -6.7068      1.00000
      8      -6.6651      1.00000
      9      -6.6278      1.00000
     10      -6.5293      1.00000
     11      -6.4609      1.00000
     12      -6.4331      1.00000
     13      -6.2972      1.00000
     14      -6.2005      1.00000
     15      -6.1418      1.00000
     16      -6.1262      1.00000
     17      -6.0788      1.00000
     18      -6.0442      1.00000
     19      -5.9353      1.00000
     20      -5.8140      1.00000
     21      -5.7733      1.00000
     22      -5.7019      1.00000
     23      -5.6828      1.00000
     24      -5.6652      1.00000
     25      -5.5825      1.00000
     26      -5.5290      1.00000
     27      -5.5067      1.00000
     28      -5.4803      1.00000
     29      -5.4579      1.00000
     30      -5.4514      1.00000
     31      -5.3952      1.00000
     32      -5.3908      1.00000
     33      -5.3793      1.00000
     34      -5.3480      1.00000
     35      -5.3101      1.00000
     36      -5.2735      1.00000
     37      -5.2543      1.00000
     38      -5.1988      1.00000
     39      -5.1490      1.00000
     40      -5.1038      1.00000
     41      -5.0885      1.00000
     42      -5.0002      1.00000
     43      -4.9826      1.00000
     44      -3.9221      0.00000
     45      -3.5307      0.00000
     46      -3.0722      0.00000
     47      -2.8967      0.00000
     48      -1.9945      0.00000
     49      -1.5515      0.00000
     50      -1.2771      0.00000
     51      -1.1843      0.00000
     52      -0.7424      0.00000
     53      -0.6303      0.00000
     54      -0.4913      0.00000
     55      -0.2076      0.00000
     56       0.0174      0.00000
     57       0.0881      0.00000
     58       0.1446      0.00000
     59       0.1618      0.00000
     60       0.1734      0.00000
     61       0.1877      0.00000
     62       0.2201      0.00000
     63       0.2373      0.00000
     64       0.3070      0.00000


--------------------------------------------------------------------------------------------------------


 soft charge-density along one line, spin component           1
         0         1         2         3         4         5         6         7         8         9
 total charge-density along one line
 
 soft charge-density along one line, spin component           2
         0         1         2         3         4         5         6         7         8         9
 total charge-density along one line
 
 pseudopotential strength for first ion, spin component:           1
-10.559   0.028   0.024   0.014   0.002   1.040  -0.021  -0.018
  0.028 -10.592   0.010  -0.012  -0.014  -0.021   1.064  -0.007
  0.024   0.010 -10.596   0.013  -0.003  -0.018  -0.007   1.067
  0.014  -0.012   0.013 -10.585   0.032  -0.010   0.009  -0.009
  0.002  -0.014  -0.003   0.032 -10.556  -0.002   0.010   0.002
  1.040  -0.021  -0.018  -0.010  -0.002   6.290   0.013   0.011
 -0.021   1.064  -0.007   0.009   0.010   0.013   6.276   0.003
 -0.018  -0.007   1.067  -0.009   0.002   0.011   0.003   6.274
 -0.010   0.009  -0.009   1.059  -0.024   0.005  -0.005   0.006
 -0.002   0.010   0.002  -0.024   1.038   0.001  -0.005  -0.002
  0.004  -0.003   0.003  -0.007  -0.001   0.001  -0.004   0.002
  0.007  -0.004   0.006  -0.012  -0.001   0.002  -0.008   0.005
  0.010  -0.009  -0.003  -0.000  -0.005  -0.005   0.002   0.000
 -0.000   0.005  -0.011   0.010   0.000   0.001  -0.001   0.003
  0.005  -0.000  -0.006  -0.009   0.011  -0.001   0.001   0.003
  0.010  -0.008  -0.002  -0.001  -0.004  -0.004  -0.001  -0.001
 -0.001   0.004  -0.009   0.011   0.000   0.001   0.001  -0.002
  0.004  -0.001  -0.006  -0.007   0.011   0.001   0.001   0.002
 pseudopotential strength for first ion, spin component:           2
-10.543   0.027   0.024   0.015   0.002   1.023  -0.020  -0.017
  0.027 -10.561   0.002  -0.006  -0.018  -0.020   1.039  -0.002
  0.024   0.002 -10.570   0.016  -0.009  -0.017  -0.002   1.046
  0.015  -0.006   0.016 -10.563   0.026  -0.013   0.005  -0.012
  0.002  -0.018  -0.009   0.026 -10.535  -0.001   0.014   0.007
  1.023  -0.020  -0.017  -0.013  -0.001   6.294   0.013   0.011
 -0.020   1.039  -0.002   0.005   0.014   0.013   6.282   0.001
 -0.017  -0.002   1.046  -0.012   0.007   0.011   0.001   6.277
 -0.013   0.005  -0.012   1.040  -0.020   0.009  -0.002   0.008
 -0.001   0.014   0.007  -0.020   1.018   0.001  -0.010  -0.005
  0.003  -0.006   0.006  -0.006  -0.002   0.001   0.001  -0.002
  0.006  -0.012   0.010  -0.011  -0.003   0.002   0.003  -0.004
  0.010  -0.011  -0.002  -0.001  -0.005  -0.005   0.008   0.000
 -0.001   0.007  -0.013   0.010   0.000   0.001  -0.006   0.010
  0.005  -0.001  -0.006  -0.010   0.011  -0.003   0.001   0.003
  0.010  -0.011  -0.001  -0.001  -0.005  -0.004   0.007  -0.001
 -0.001   0.008  -0.013   0.011   0.001   0.001  -0.006   0.009
  0.005  -0.001  -0.006  -0.010   0.012  -0.002   0.001   0.002
 total augmentation occupancy for first ion, spin component:           1
  1.961   0.004   0.011   0.007   0.004  -0.014  -0.006  -0.010  -0.004  -0.002  -0.015  -0.001  -0.048  -0.012  -0.040   0.018
  0.004   1.952  -0.003   0.005  -0.007  -0.006  -0.013  -0.001  -0.003   0.005   0.042   0.002   0.056  -0.017  -0.011  -0.024
  0.011  -0.003   1.947  -0.000  -0.006  -0.010  -0.001  -0.011  -0.002   0.002  -0.037  -0.001   0.034   0.061   0.020  -0.009
  0.007   0.005  -0.000   1.948   0.010  -0.004  -0.003  -0.002  -0.010  -0.006   0.021   0.001  -0.013  -0.033   0.065   0.001
  0.004  -0.007  -0.006   0.010   1.962  -0.002   0.005   0.002  -0.006  -0.022   0.014  -0.000   0.035   0.008  -0.021  -0.015
 -0.014  -0.006  -0.010  -0.004  -0.002   0.005  -0.002  -0.002  -0.001   0.000   0.024  -0.002  -0.011   0.001  -0.009   0.001
 -0.006  -0.013  -0.001  -0.003   0.005  -0.002   0.007  -0.002   0.001   0.001  -0.031   0.004   0.015  -0.013   0.001  -0.001
 -0.010  -0.001  -0.011  -0.002   0.002  -0.002  -0.002   0.007  -0.001  -0.001   0.024  -0.003   0.000   0.019   0.004   0.000
 -0.004  -0.003  -0.002  -0.010  -0.006  -0.001   0.001  -0.001   0.007  -0.002  -0.039   0.004   0.001  -0.012   0.015  -0.000
 -0.002   0.005   0.002  -0.006  -0.022   0.000   0.001  -0.001  -0.002   0.004  -0.001  -0.000   0.005  -0.001  -0.008  -0.000
 -0.015   0.042  -0.037   0.021   0.014   0.024  -0.031   0.024  -0.039  -0.001   1.562  -0.071  -0.110   0.195  -0.128   0.013
 -0.001   0.002  -0.001   0.001  -0.000  -0.002   0.004  -0.003   0.004  -0.000  -0.071   0.009   0.013  -0.025   0.013  -0.001
 -0.048   0.056   0.034  -0.013   0.035  -0.011   0.015   0.000   0.001   0.005  -0.110   0.013   0.059  -0.028   0.012  -0.005
 -0.012  -0.017   0.061  -0.033   0.008   0.001  -0.013   0.019  -0.012  -0.001   0.195  -0.025  -0.028   0.096  -0.018   0.002
 -0.040  -0.011   0.020   0.065  -0.021  -0.009   0.001   0.004   0.015  -0.008  -0.128   0.013   0.012  -0.018   0.057  -0.001
  0.018  -0.024  -0.009   0.001  -0.015   0.001  -0.001   0.000  -0.000  -0.000   0.013  -0.001  -0.005   0.002  -0.001   0.001
  0.001   0.013  -0.029   0.017   0.000  -0.000   0.001  -0.001   0.001  -0.000  -0.024   0.002   0.002  -0.008   0.003  -0.000
  0.013   0.001  -0.009  -0.023   0.015   0.001  -0.000   0.000  -0.001   0.000   0.016  -0.001  -0.001   0.002  -0.005   0.000
 total augmentation occupancy for first ion, spin component:           2
  0.002  -0.000  -0.000  -0.002  -0.000   0.005  -0.000   0.000  -0.001   0.000   0.002   0.001  -0.001  -0.000   0.004   0.000
 -0.000   0.015  -0.006   0.004   0.000   0.000   0.004   0.001  -0.001   0.001  -0.046  -0.009  -0.013   0.014  -0.002  -0.002
 -0.000  -0.006   0.013   0.002  -0.003   0.000   0.001   0.005  -0.000   0.001   0.044   0.008   0.002  -0.017  -0.001   0.000
 -0.002   0.004   0.002   0.009  -0.004  -0.001  -0.001  -0.000   0.005   0.001   0.000  -0.001  -0.001   0.000  -0.010  -0.000
 -0.000   0.000  -0.003  -0.004   0.005   0.000   0.001   0.001   0.001   0.004  -0.011  -0.002  -0.004   0.001   0.002  -0.001
  0.005   0.000   0.000  -0.001   0.000  -0.000  -0.000   0.000   0.000  -0.000  -0.001  -0.000  -0.000  -0.000  -0.000   0.000
 -0.000   0.004   0.001  -0.001   0.001  -0.000   0.000  -0.000   0.000  -0.000   0.010   0.001   0.001  -0.002   0.000   0.000
  0.000   0.001   0.005  -0.000   0.001   0.000  -0.000   0.000   0.000  -0.000  -0.009  -0.001  -0.001   0.002   0.000  -0.000
 -0.001  -0.001  -0.000   0.005   0.001   0.000   0.000   0.000  -0.000  -0.000   0.001   0.000   0.000  -0.000   0.001   0.000
  0.000   0.001   0.001   0.001   0.004  -0.000  -0.000  -0.000  -0.000  -0.000   0.002   0.000   0.000  -0.000  -0.000  -0.000
  0.002  -0.046   0.044   0.000  -0.011  -0.001   0.010  -0.009   0.001   0.002   0.302   0.017   0.039  -0.073  -0.005   0.001
  0.001  -0.009   0.008  -0.001  -0.002  -0.000   0.001  -0.001   0.000   0.000   0.017   0.001   0.002  -0.003   0.000   0.000
 -0.001  -0.013   0.002  -0.001  -0.004  -0.000   0.001  -0.001   0.000   0.000   0.039   0.002   0.003  -0.005  -0.000   0.000
 -0.000   0.014  -0.017   0.000   0.001  -0.000  -0.002   0.002  -0.000  -0.000  -0.073  -0.003  -0.005   0.010   0.001  -0.000
  0.004  -0.002  -0.001  -0.010   0.002  -0.000   0.000   0.000   0.001  -0.000  -0.005   0.000  -0.000   0.001   0.002   0.000
  0.000  -0.002   0.000  -0.000  -0.001   0.000   0.000  -0.000   0.000  -0.000   0.001   0.000   0.000  -0.000   0.000   0.000
 -0.000   0.002  -0.002   0.000   0.000   0.000  -0.000   0.000   0.000  -0.000  -0.001  -0.000  -0.000   0.001  -0.000  -0.000
  0.001  -0.000   0.000  -0.001   0.000   0.000   0.000  -0.000  -0.000   0.000   0.001   0.000   0.000  -0.000   0.000   0.000


------------------------ aborting loop because EDIFF is reached ----------------------------------------


 


 total charge     
 
# of ion       s       p       d       tot
------------------------------------------
    1        0.468   0.109   9.289   9.866
    2        0.468   0.139   9.291   9.897
    3        0.461   0.178   9.271   9.910
    4        0.447   0.302   9.216   9.964
    5        0.497   0.069   9.306   9.872
    6        0.477   0.077   9.312   9.866
    7        0.440   0.248   9.248   9.936
    8        0.472   0.112   9.292   9.876
--------------------------------------------------
tot          3.729   1.235  74.225  79.188
 


 magnetization (x)
 
# of ion       s       p       d       tot
------------------------------------------
    1        0.124   0.011   0.023   0.158
    2        0.021   0.032   0.043   0.096
    3        0.033   0.022   0.013   0.068
    4        0.000   0.032   0.042   0.073
    5        0.065   0.005   0.013   0.083
    6        0.119   0.006   0.015   0.139
    7        0.002   0.028   0.040   0.070
    8        0.071   0.015   0.032   0.118
--------------------------------------------------
tot          0.434   0.151   0.220   0.805
 
    CHARGE:  cpu time    0.2800: real time    0.2815
    FORLOC:  cpu time    0.0200: real time    0.0187
    FORNL :  cpu time    0.5040: real time    0.5068
    STRESS:  cpu time    1.4240: real time    1.4263
    FORCOR:  cpu time    0.8960: real time    0.8942
    FORHAR:  cpu time    0.1240: real time    0.1237
    MIXING:  cpu time    0.0280: real time    0.0282
    OFIELD:  cpu time    0.0000: real time    0.0001

  FORCE on cell =-STRESS in cart. coord.  units (eV):
  Direction    XX          YY          ZZ          XY          YZ          ZX
  --------------------------------------------------------------------------------------
  Alpha Z     1.73352     1.73352     1.73352
  Ewald    4504.66174  4118.67077  1910.38764  -119.19865  2466.46676   709.18301
  Hartree  7705.76285  7417.74440  5525.63350   -88.51487  2110.58428   562.94379
  E(xc)    -512.68997  -512.81880  -513.40078     0.00799     0.73523     0.39013
  Local  -12968.05392-12298.07942 -8207.28241   204.95549 -4566.69455 -1265.76241
  n-local  -197.98026  -197.42444  -198.39228     0.18858     0.53003    -0.17425
  augment   745.11007   746.68127   751.61760     1.08821    -5.45489    -3.32585
  Kinetic   719.60780   721.68474   727.76440     1.32641    -6.22631    -3.32787
  Fock        0.00000     0.00000     0.00000     0.00000     0.00000     0.00000
  -------------------------------------------------------------------------------------
  Total      -1.84817    -1.80797    -1.93882    -0.14684    -0.05944    -0.07346
  in kB      -0.10967    -0.10728    -0.11505    -0.00871    -0.00353    -0.00436
  external pressure =       -0.11 kB  Pullay stress =        0.00 kB


 VOLUME and BASIS-vectors are now :
 -----------------------------------------------------------------------------
  energy-cutoff  :      295.45
  volume of cell :    27000.00
      direct lattice vectors                 reciprocal lattice vectors
    30.000000000  0.000000000  0.000000000     0.033333333  0.000000000  0.000000000
     0.000000000 30.000000000  0.000000000     0.000000000  0.033333333  0.000000000
     0.000000000  0.000000000 30.000000000     0.000000000  0.000000000  0.033333333

  length of vectors
    30.000000000 30.000000000 30.000000000     0.033333333  0.033333333  0.033333333


 FORCES acting on ions
    electron-ion (+dipol)            ewald-force                    non-local-force                 convergence-correction
 -----------------------------------------------------------------------------------------------
   -.651E+03 -.270E+03 0.721E+03   0.646E+03 0.266E+03 -.714E+03   0.497E+01 0.399E+01 -.677E+01   0.585E-02 0.868E-02 -.265E-01
   0.649E+03 -.660E+03 -.190E+02   -.641E+03 0.652E+03 0.207E+02   -.809E+01 0.828E+01 -.159E+01   -.738E-02 0.179E-01 -.234E-01
   0.805E+03 0.481E+02 -.158E+02   -.799E+03 -.477E+02 0.146E+02   -.559E+01 -.405E+00 0.120E+01   0.503E-02 -.316E-02 0.661E-02
   -.211E+03 -.275E+03 -.277E+03   0.210E+03 0.275E+03 0.276E+03   0.101E+01 0.482E-01 0.174E+00   0.184E-01 -.111E-01 -.109E-01
   0.504E+03 0.598E+03 0.453E+03   -.497E+03 -.591E+03 -.446E+03   -.721E+01 -.750E+01 -.683E+01   0.100E-01 -.719E-03 -.218E-01
   -.219E+03 -.610E+03 -.624E+03   0.214E+03 0.605E+03 0.616E+03   0.441E+01 0.552E+01 0.802E+01   -.327E-01 -.211E-01 0.535E-01
   -.119E+03 0.722E+03 0.272E+03   0.117E+03 -.717E+03 -.271E+03   0.246E+01 -.464E+01 -.102E+01   -.975E-02 -.264E-01 -.582E-02
   -.760E+03 0.446E+03 -.510E+03   0.751E+03 -.442E+03 0.504E+03   0.894E+01 -.430E+01 0.627E+01   -.187E-03 0.205E-01 -.380E-01
 -----------------------------------------------------------------------------------------------
   -.780E+00 -.103E+01 0.706E+00   0.114E-12 0.000E+00 -.171E-12   0.908E+00 0.994E+00 -.555E+00   -.108E-01 -.153E-01 -.664E-01
 
 
 POSITION                                       TOTAL-FORCE (eV/Angst)
 -----------------------------------------------------------------------------------
     10.16564      8.37897      6.86253         0.022406     -0.021927      0.069416
      6.82327     10.17945      8.80773        -0.076249      0.025307      0.012083
      6.54818      7.94187      8.03292         0.015501      0.008078     -0.000485
      8.73808      8.85063      8.76049         0.039844     -0.065742     -0.040500
      6.50233      6.00330      6.67150         0.004804      0.019811      0.037392
      8.60851     10.67457     10.25060         0.015831      0.038366     -0.033857
      8.55192      6.74503      7.52762        -0.031881     -0.014685     -0.003405
     10.39506      7.19002      8.99150         0.009745      0.010792     -0.040644
 -----------------------------------------------------------------------------------
    total drift:                                0.117200     -0.050009      0.085584


--------------------------------------------------------------------------------------------------------



  FREE ENERGIE OF THE ION-ELECTRON SYSTEM (eV)
  ---------------------------------------------------
  free  energy   TOTEN  =       -16.90124561 eV

  energy  without entropy=      -16.90124561  energy(sigma->0) =      -16.90124561
 
 d Force = 0.2129851E-02[-0.728E-04, 0.433E-02]  d Energy = 0.1908916E-02 0.221E-03
 d Force =-0.9653507E+01[-0.959E+01,-0.971E+01]  d Ewald  =-0.9653819E+01 0.312E-03


--------------------------------------------------------------------------------------------------------


    POTLOK:  cpu time    0.9600: real time    0.9598


--------------------------------------------------------------------------------------------------------


 Conjugate gradient step on ions:
 trial-energy change:   -0.001909  1 .order   -0.002130   -0.004332    0.000073
  (g-gl).g = 0.184E-02      g.g   = 0.186E-02  gl.gl    = 0.332E-02
 g(Force)  = 0.186E-02   g(Stress)= 0.000E+00 ortho     =-0.220E-03
 gamma     =   0.55427
 trial     =   2.49215
 opt step  =   2.43386  (harmonic =   2.45099) maximal distance =0.01057002
 next E    =   -16.901246   (d E  =  -0.00191)


--------------------------------------------------------------------------------------------------------


  
 reached required accuracy - stopping structural energy minimisation
     LOOP+:  cpu time   36.6880: real time   36.7834
    4ORBIT:  cpu time    0.0000: real time    0.0000
 


 total charge     
 
# of ion       s       p       d       tot
------------------------------------------
    1        0.468   0.109   9.289   9.866
    2        0.468   0.139   9.291   9.897
    3        0.461   0.178   9.271   9.910
    4        0.447   0.302   9.216   9.964
    5        0.497   0.069   9.306   9.872
    6        0.477   0.077   9.312   9.866
    7        0.440   0.248   9.248   9.936
    8        0.472   0.112   9.292   9.876
--------------------------------------------------
tot          3.729   1.235  74.225  79.188
 


 magnetization (x)
 
# of ion       s       p       d       tot
------------------------------------------
    1        0.124   0.011   0.023   0.158
    2        0.021   0.032   0.043   0.096
    3        0.033   0.022   0.013   0.068
    4        0.000   0.032   0.042   0.073
    5        0.065   0.005   0.013   0.083
    6        0.119   0.006   0.015   0.139
    7        0.002   0.028   0.040   0.070
    8        0.071   0.015   0.032   0.118
--------------------------------------------------
tot          0.434   0.151   0.220   0.805
 

 total amount of memory used by VASP MPI-rank0   100829. kBytes
=======================================================================

   base      :      30000. kBytes
   nonl-proj :       3847. kBytes
   fftplans  :      16829. kBytes
   grid      :      42892. kBytes
   one-center:         15. kBytes
   wavefun   :       7246. kBytes
 
  
  
 General timing and accounting informations for this job:
 ========================================================
  
                  Total CPU time used (sec):      878.084
                            User time (sec):      875.576
                          System time (sec):        2.508
                         Elapsed time (sec):      880.878
  
                   Maximum memory used (kb):       44768.
                   Average memory used (kb):           0.
  
                          Minor page faults:        17502
                          Major page faults:           27
                 Voluntary context switches:         1219
