 vasp.5.4.1 05Feb16 (build Apr 11 2020 03:28:46) gamma-only                     
  
 executed on           IFC91_ompi date 2022.05.26  01:26:11
 running on   24 total cores
 distrk:  each k-point on   24 cores,    1 groups
 distr:  one band on NCORES_PER_BAND=   6 cores,    4 groups


--------------------------------------------------------------------------------------------------------


 INCAR:
 POTCAR:    PAW_PBE Cu 22Jun2005                  
 POTCAR:    PAW_PBE Cu 22Jun2005                  
   VRHFIN =Cu: d10 p1                                                           
   LEXCH  = PE                                                                  
   EATOM  =  1390.9808 eV,  102.2342 Ry                                         
                                                                                
   TITEL  = PAW_PBE Cu 22Jun2005                                                
   LULTRA =        F    use ultrasoft PP ?                                      
   IUNSCR =        1    unscreen: 0-lin 1-nonlin 2-no                           
   RPACOR =    2.000    partial core radius                                     
   POMASS =   63.546; ZVAL   =   11.000    mass and valenz                      
   RCORE  =    2.300    outmost cutoff radius                                   
   RWIGS  =    2.200; RWIGS  =    1.164    wigner-seitz radius (au A)           
   ENMAX  =  295.446; ENMIN  =  221.585 eV                                      
   ICORE  =        3    local potential                                         
   LCOR   =        T    correct aug charges                                     
   LPAW   =        T    paw PP                                                  
   EAUG   =  586.980                                                            
   DEXC   =    0.000                                                            
   RMAX   =    2.344    core radius for proj-oper                               
   RAUG   =    1.300    factor for augmentation sphere                          
   RDEP   =    2.302    radius for radial grids                                 
   RDEPT  =    1.771    core radius for aug-charge                              
                                                                                
   Atomic configuration                                                         
    9 entries                                                                   
     n  l   j            E        occ.                                          
     1  0  0.50     -8850.2468   2.0000                                         
     2  0  0.50     -1062.3498   2.0000                                         
     2  1  1.50      -916.8226   6.0000                                         
     3  0  0.50      -114.6929   2.0000                                         
     3  1  1.50       -72.1325   6.0000                                         
     3  2  2.50        -5.0394  10.0000                                         
     4  0  0.50        -4.6097   1.0000                                         
     4  1  0.50        -4.0817   0.0000                                         
     4  3  2.50        -1.3606   0.0000                                         
   Description                                                                  
     l       E           TYP  RCUT    TYP  RCUT                                 
     2     -5.0393973     23  2.200                                             
     2     10.8846608     23  2.200                                             
     0     -4.6097109     23  2.200                                             
     0      8.2520465     23  2.200                                             
     1     -2.7211652     23  2.200                                             
     1     21.7055443     23  2.200                                             
     3      2.7211652     23  2.300                                             
  local pseudopotential read in
  partial core-charges read in
  partial kinetic energy density read in
  atomic valenz-charges read in
  non local Contribution for L=           2  read in
    real space projection operators read in
  non local Contribution for L=           2  read in
    real space projection operators read in
  non local Contribution for L=           0  read in
    real space projection operators read in
  non local Contribution for L=           0  read in
    real space projection operators read in
  non local Contribution for L=           1  read in
    real space projection operators read in
  non local Contribution for L=           1  read in
    real space projection operators read in
    PAW grid and wavefunctions read in
 
   number of l-projection  operators is LMAX  =           6
   number of lm-projection operators is LMMAX =          18
 
  PAW_PBE Cu 22Jun2005                  :
 energy of atom  1       EATOM=-1390.9808
 kinetic energy error for atom=    0.0452 (will be added to EATOM!!)
 
 
 POSCAR: Unknown Structure <s> Cu </s>           
  positions in direct lattice
  velocities in cartesian coordinates
 exchange correlation table for  LEXCH =        8
   RHO(1)=    0.500       N(1)  =     2000
   RHO(2)=  100.500       N(2)  =     4000
 


--------------------------------------------------------------------------------------------------------


 ion  position               nearest neighbor table
   1  0.513  0.490  0.613-   4 2.41   8 2.43   2 2.45   3 2.46
   2  0.437  0.559  0.547-   6 2.37   3 2.38   9 2.44   1 2.45   4 2.47
   3  0.429  0.441  0.538-   7 2.37   2 2.38   9 2.42   1 2.46   8 2.49
   4  0.559  0.557  0.524-   6 2.37   5 2.40   1 2.41   8 2.42   2 2.47   9 2.62
   5  0.587  0.507  0.418-   9 2.39   4 2.40   8 2.41
   6  0.485  0.626  0.461-   2 2.37   4 2.37   9 2.48
   7  0.469  0.379  0.445-   3 2.37   8 2.39   9 2.51
   8  0.550  0.437  0.510-   7 2.39   5 2.41   4 2.42   1 2.43   9 2.48   3 2.49
   9  0.470  0.504  0.443-   5 2.39   3 2.42   2 2.44   6 2.48   8 2.48   7 2.51   4 2.62
 

IMPORTANT INFORMATION: All symmetrisations will be switched off!
NOSYMM: (Re-)initialisation of all symmetry stuff for point group C_1.

 
 
 KPOINTS: Gamma only                              
  k-points in reciprocal lattice
Space group operators:
 irot       det(A)        alpha          n_x          n_y          n_z        tau_x        tau_y        tau_z
    1     1.000000     0.000000     1.000000     0.000000     0.000000     0.000000     0.000000     0.000000


--------------------------------------------------------------------------------------------------------




 Dimension of arrays:
   k-points           NKPTS =      1   k-points in BZ     NKDIM =      1   number of bands    NBANDS=     76
   number of dos      NEDOS =    301   number of ions     NIONS =      9
   non local maximal  LDIM  =      6   non local SUM 2l+1 LMDIM =     18
   total plane-waves  NPLWV = 592704
   max r-space proj   IRMAX =      1   max aug-charges    IRDMAX=   2352
   dimension x,y,z NGX =    84 NGY =   84 NGZ =   84
   dimension x,y,z NGXF=   168 NGYF=  168 NGZF=  168
   support grid    NGXF=   168 NGYF=  168 NGZF=  168
   ions per type =               9
 NGX,Y,Z   is equivalent  to a cutoff of   6.99,  6.99,  6.99 a.u.
 NGXF,Y,Z  is equivalent  to a cutoff of  13.98, 13.98, 13.98 a.u.


 I would recommend the setting:
   dimension x,y,z NGX =    84 NGY =   84 NGZ =   84
 SYSTEM =  unknown system                          
 POSCAR =  Unknown Structure <s> Cu </s>           

 Startparameter for this run:
   NWRITE =      2    write-flag & timer
   PREC   = normal    normal or accurate (medium, high low for compatibility)
   ISTART =      0    job   : 0-new  1-cont  2-samecut
   ICHARG =      2    charge: 1-file 2-atom 10-const
   ISPIN  =      2    spin polarized calculation?
   LNONCOLLINEAR =      F non collinear calculations
   LSORBIT =      F    spin-orbit coupling
   INIWAV =      1    electr: 0-lowe 1-rand  2-diag
   LASPH  =      F    aspherical Exc in radial PAW
   METAGGA=      F    non-selfconsistent MetaGGA calc.

 Electronic Relaxation 1
   ENCUT  =  295.4 eV  21.71 Ry    4.66 a.u.  28.00 28.00 28.00*2*pi/ulx,y,z
   ENINI  =  295.4     initial cutoff
   ENAUG  =  587.0 eV  augmentation charge cutoff
   NELM   =     60;   NELMIN=  2; NELMDL=  0     # of ELM steps 
   EDIFF  = 0.1E-05   stopping-criterion for ELM
   LREAL  =      F    real-space projection
   NLSPLINE    = F    spline interpolate recip. space projectors
   LCOMPAT=      F    compatible to vasp.4.4
   GGA_COMPAT  = T    GGA compatible to vasp.4.4-vasp.4.6
   LMAXPAW     = -100 max onsite density
   LMAXMIX     =    2 max onsite mixed and CHGCAR
   VOSKOWN=      0    Vosko Wilk Nusair interpolation
   ROPT   =    0.00000
 Ionic relaxation
   EDIFFG = -.3E-01   stopping-criterion for IOM
   NSW    =   1000    number of steps for IOM
   NBLOCK =      1;   KBLOCK =   1000    inner block; outer block 
   IBRION =      2    ionic relax: 0-MD 1-quasi-New 2-CG
   NFREE  =      1    steps in history (QN), initial steepest desc. (CG)
   ISIF   =      2    stress and relaxation
   IWAVPR =     11    prediction:  0-non 1-charg 2-wave 3-comb
   ISYM   =      0    0-nonsym 1-usesym 2-fastsym
   LCORR  =      T    Harris-Foulkes like correction to forces

   POTIM  = 0.5000    time-step for ionic-motion
   TEIN   =    0.0    initial temperature
   TEBEG  =    0.0;   TEEND  =   0.0 temperature during run
   SMASS  =  -3.00    Nose mass-parameter (am)
   estimated Nose-frequenzy (Omega)   =  0.10E-29 period in steps =****** mass=  -0.912E-26a.u.
   SCALEE = 1.0000    scale energy and forces
   NPACO  =    256;   APACO  = 16.0  distance and # of slots for P.C.
   PSTRESS=    0.0 pullay stress

  Mass of Ions in am
   POMASS =  63.55
  Ionic Valenz
   ZVAL   =  11.00
  Atomic Wigner-Seitz radii
   RWIGS  =  -1.00
  virtual crystal weights 
   VCA    =   1.00
   NELECT =      99.0000    total number of electrons
   NUPDOWN=      -1.0000    fix difference up-down

 DOS related values:
   EMIN   =  10.00;   EMAX   =-10.00  energy-range for DOS
   EFERMI =   0.00
   ISMEAR =     0;   SIGMA  =   0.00  broadening in eV -4-tet -1-fermi 0-gaus

 Electronic relaxation 2 (details)
   IALGO  =     68    algorithm
   LDIAG  =      T    sub-space diagonalisation (order eigenvalues)
   LSUBROT=      F    optimize rotation matrix (better conditioning)
   TURBO    =      0    0=normal 1=particle mesh
   IRESTART =      0    0=no restart 2=restart with 2 vectors
   NREBOOT  =      0    no. of reboots
   NMIN     =      0    reboot dimension
   EREF     =   0.00    reference energy to select bands
   IMIX   =      4    mixing-type and parameters
     AMIX     =   0.20;   BMIX     =  0.00
     AMIX_MAG =   0.80;   BMIX_MAG =  0.00
     AMIN     =   0.10
     WC   =   100.;   INIMIX=   1;  MIXPRE=   1;  MAXMIX= -45

 Intra band minimization:
   WEIMIN = 0.0010     energy-eigenvalue tresh-hold
   EBREAK =  0.33E-08  absolut break condition
   DEPER  =   0.30     relativ break condition  

   TIME   =   0.40     timestep for ELM

  volume/ion in A,a.u.               =     885.93      5978.56
  Fermi-wavevector in a.u.,A,eV,Ry     =   0.379087  0.716371  1.955253  0.143707
  Thomas-Fermi vector in A             =   1.312875
 
 Write flags
   LWAVE  =      F    write WAVECAR
   LCHARG =      F    write CHGCAR
   LVTOT  =      F    write LOCPOT, total local potential
   LVHAR  =      F    write LOCPOT, Hartree potential only
   LELF   =      F    write electronic localiz. function (ELF)
   LORBIT =     11    0 simple, 1 ext, 2 COOP (PROOUT)


 Dipole corrections
   LMONO  =      F    monopole corrections only (constant potential shift)
   LDIPOL =      F    correct potential (dipole corrections)
   IDIPOL =      0    1-x, 2-y, 3-z, 4-all directions 
   EPSILON=  1.0000000 bulk dielectric constant

 Exchange correlation treatment:
   GGA     =    PE    GGA type
   LEXCH   =     8    internal setting for exchange type
   VOSKOWN=      0    Vosko Wilk Nusair interpolation
   LHFCALC =     F    Hartree Fock is set to
   LHFONE  =     F    Hartree Fock one center treatment
   AEXX    =    0.0000 exact exchange contribution

 Linear response parameters
   LEPSILON=     F    determine dielectric tensor
   LRPA    =     F    only Hartree local field effects (RPA)
   LNABLA  =     F    use nabla operator in PAW spheres
   LVEL    =     F    velocity operator in full k-point grid
   LINTERFAST=   F  fast interpolation
   KINTER  =     0    interpolate to denser k-point grid
   CSHIFT  =0.1000    complex shift for real part using Kramers Kronig
   OMEGAMAX=  -1.0    maximum frequency
   DEG_THRESHOLD= 0.2000000E-02 threshold for treating states as degnerate
   RTIME   =    0.100 relaxation time in fs

 Orbital magnetization related:
   ORBITALMAG=     F  switch on orbital magnetization
   LCHIMAG   =     F  perturbation theory with respect to B field
   DQ        =  0.001000  dq finite difference perturbation B field



--------------------------------------------------------------------------------------------------------


 conjugate gradient relaxation of ions
 charge density and potential will be updated during run
 spin polarized calculation
 RMM-DIIS sequential band-by-band and
  variant of blocked Davidson during initial phase
 perform sub-space diagonalisation
    before iterative eigenvector-optimisation
 modified Broyden-mixing scheme, WC =      100.0
 initial mixing is a Kerker type mixing with AMIX =  0.2000 and BMIX =      0.0001
 Hartree-type preconditioning will be used
 using additional bands           26
 reciprocal scheme for non local part
 use partial core corrections
 calculate Harris-corrections to forces 
   (improved forces if not selfconsistent)
 use gradient corrections 
 use of overlap-Matrix (Vanderbilt PP)
 Gauss-broadening in eV      SIGMA  =   0.00


--------------------------------------------------------------------------------------------------------


  energy-cutoff  :      295.45
  volume of cell :     7973.38
      direct lattice vectors                 reciprocal lattice vectors
    19.977794279  0.000000000  0.000000000     0.050055576  0.000000000  0.000000000
     0.000000000 19.977794279  0.000000000     0.000000000  0.050055576  0.000000000
     0.000000000  0.000000000 19.977794279     0.000000000  0.000000000  0.050055576

  length of vectors
    19.977794279 19.977794279 19.977794279     0.050055576  0.050055576  0.050055576


 
 k-points in units of 2pi/SCALE and weight: Gamma only                              
   0.00000000  0.00000000  0.00000000       1.000
 
 k-points in reciprocal lattice and weights: Gamma only                              
   0.00000000  0.00000000  0.00000000       1.000
 
 position of ions in fractional coordinates (direct lattice) 
   0.51345672  0.49007714  0.61333245
   0.43718308  0.55946613  0.54687393
   0.42914060  0.44088844  0.53815799
   0.55881178  0.55710615  0.52386958
   0.58689537  0.50670206  0.41829533
   0.48514081  0.62585580  0.46092181
   0.46893479  0.37857609  0.44514089
   0.55034917  0.43718247  0.51012067
   0.47008768  0.50414573  0.44328735
 
 position of ions in cartesian coordinates  (Angst):
  10.25773277  9.79066023 12.25302958
   8.73395362 11.17689915 10.92533492
   8.57328255  8.80797853 10.75120952
  11.16382683 11.12975213 10.46575866
  11.72487502 10.12278956  8.35661795
   9.69204322 12.50321838  9.20820114
   9.36828273  7.56311516  8.89293314
  10.99476257  8.73394142 10.19108585
   9.39131495 10.07171969  8.85590351
 


--------------------------------------------------------------------------------------------------------


 use parallel FFT for wavefunctions z direction half grid
 k-point  1 :   0.0000 0.0000 0.0000  plane waves:   45956

 maximum and minimum number of plane-waves per node :      7669     7645

 maximum number of plane-waves:     45956
 maximum index in each direction: 
   IXMAX=   27   IYMAX=   27   IZMAX=   27
   IXMIN=  -27   IYMIN=  -27   IZMIN=    0

 WARNING: aliasing errors must be expected set NGX to 110 to avoid them
 WARNING: aliasing errors must be expected set NGY to 110 to avoid them
 WARNING: aliasing errors must be expected set NGZ to 110 to avoid them
 aliasing errors are usually negligible using standard VASP settings
 and one can safely disregard these warnings

 parallel 3D FFT for wavefunctions:
    minimum data exchange during FFTs selected (reduces bandwidth)
 parallel 3D FFT for charge:
    minimum data exchange during FFTs selected (reduces bandwidth)


 total amount of memory used by VASP on root node    68070. kBytes
========================================================================

   base      :      30000. kBytes
   nonl-proj :       2209. kBytes
   fftplans  :       8859. kBytes
   grid      :      22296. kBytes
   one-center:         31. kBytes
   wavefun   :       4675. kBytes
 
     INWAV:  cpu time    0.0000: real time    0.0000
 Broyden mixing: mesh for mixing (old mesh)
   NGX = 55   NGY = 55   NGZ = 55
  (NGX  =168   NGY  =168   NGZ  =168)
  gives a total of 166375 points

 initial charge density was supplied:
 charge density of overlapping atoms calculated
 number of electron      99.0000000 magnetization      27.0000000
 keeping initial charge density in first step


--------------------------------------------------------------------------------------------------------


 Maximum index for augmentation-charges          196 (set IRDMAX)


--------------------------------------------------------------------------------------------------------


 First call to EWALD:  gamma=   0.089
 Maximum number of real-space cells 3x 3x 3
 Maximum number of reciprocal cells 3x 3x 3

 FEWALD executed in parallel
    FEWALD:  cpu time    0.0018: real time    0.0018


----------------------------------------- Iteration    1(   1)  ---------------------------------------


    POTLOK:  cpu time    0.3129: real time    0.3148
    SETDIJ:  cpu time    0.0081: real time    0.0081
     EDDAV:  cpu time    0.9357: real time    0.9370
       DOS:  cpu time    0.0001: real time    0.0001
    --------------------------------------------
      LOOP:  cpu time    1.2600: real time    1.2747

 eigenvalue-minimisations  :   304
 total energy-change (2. order) : 0.6457497E+03  (-0.1572122E+04)
 number of electron      99.0000000 magnetization      27.0000000
 augmentation part       99.0000000 magnetization      27.0000000

 Free energy of the ion-electron system (eV)
  ---------------------------------------------------
  alpha Z        PSCENC =         7.42941524
  Ewald energy   TEWEN  =     11833.27848497
  -Hartree energ DENC   =    -23238.96396440
  -exchange      EXHF   =         0.00000000
  -V(xc)+E(xc)   XCENC  =       411.90254552
  PAW double counting   =     11044.95461822   -11996.06289171
  entropy T*S    EENTRO =         0.00000000
  eigenvalues    EBANDS =        64.79125161
  atomic energy  EATOM  =     12518.42026192
  Solvation  Ediel_sol  =         0.00000000
  ---------------------------------------------------
  free energy    TOTEN  =       645.74972137 eV

  energy without entropy =      645.74972137  energy(sigma->0) =      645.74972137


--------------------------------------------------------------------------------------------------------




----------------------------------------- Iteration    1(   2)  ---------------------------------------


     EDDAV:  cpu time    1.0632: real time    1.0642
       DOS:  cpu time    0.0001: real time    0.0001
    --------------------------------------------
      LOOP:  cpu time    1.0657: real time    1.0697

 eigenvalue-minimisations  :   360
 total energy-change (2. order) :-0.5173916E+03  (-0.4336370E+03)
 number of electron      99.0000000 magnetization      27.0000000
 augmentation part       99.0000000 magnetization      27.0000000

 Free energy of the ion-electron system (eV)
  ---------------------------------------------------
  alpha Z        PSCENC =         7.42941524
  Ewald energy   TEWEN  =     11833.27848497
  -Hartree energ DENC   =    -23238.96396440
  -exchange      EXHF   =         0.00000000
  -V(xc)+E(xc)   XCENC  =       411.90254552
  PAW double counting   =     11044.95461822   -11996.06289171
  entropy T*S    EENTRO =         0.00000000
  eigenvalues    EBANDS =      -452.60031056
  atomic energy  EATOM  =     12518.42026192
  Solvation  Ediel_sol  =         0.00000000
  ---------------------------------------------------
  free energy    TOTEN  =       128.35815921 eV

  energy without entropy =      128.35815921  energy(sigma->0) =      128.35815921


--------------------------------------------------------------------------------------------------------




----------------------------------------- Iteration    1(   3)  ---------------------------------------


     EDDAV:  cpu time    1.0880: real time    1.0903
       DOS:  cpu time    0.0001: real time    0.0001
    --------------------------------------------
      LOOP:  cpu time    1.0902: real time    1.0954

 eigenvalue-minimisations  :   376
 total energy-change (2. order) :-0.1257774E+03  (-0.1191825E+03)
 number of electron      99.0000000 magnetization      27.0000000
 augmentation part       99.0000000 magnetization      27.0000000

 Free energy of the ion-electron system (eV)
  ---------------------------------------------------
  alpha Z        PSCENC =         7.42941524
  Ewald energy   TEWEN  =     11833.27848497
  -Hartree energ DENC   =    -23238.96396440
  -exchange      EXHF   =         0.00000000
  -V(xc)+E(xc)   XCENC  =       411.90254552
  PAW double counting   =     11044.95461822   -11996.06289171
  entropy T*S    EENTRO =         0.00000000
  eigenvalues    EBANDS =      -578.37774844
  atomic energy  EATOM  =     12518.42026192
  Solvation  Ediel_sol  =         0.00000000
  ---------------------------------------------------
  free energy    TOTEN  =         2.58072132 eV

  energy without entropy =        2.58072132  energy(sigma->0) =        2.58072132


--------------------------------------------------------------------------------------------------------




----------------------------------------- Iteration    1(   4)  ---------------------------------------


     EDDAV:  cpu time    1.1404: real time    1.1416
       DOS:  cpu time    0.0001: real time    0.0001
    --------------------------------------------
      LOOP:  cpu time    1.1430: real time    1.1469

 eigenvalue-minimisations  :   400
 total energy-change (2. order) :-0.1345382E+02  (-0.1240205E+02)
 number of electron      99.0000000 magnetization      27.0000000
 augmentation part       99.0000000 magnetization      27.0000000

 Free energy of the ion-electron system (eV)
  ---------------------------------------------------
  alpha Z        PSCENC =         7.42941524
  Ewald energy   TEWEN  =     11833.27848497
  -Hartree energ DENC   =    -23238.96396440
  -exchange      EXHF   =         0.00000000
  -V(xc)+E(xc)   XCENC  =       411.90254552
  PAW double counting   =     11044.95461822   -11996.06289171
  entropy T*S    EENTRO =         0.00000000
  eigenvalues    EBANDS =      -591.83156879
  atomic energy  EATOM  =     12518.42026192
  Solvation  Ediel_sol  =         0.00000000
  ---------------------------------------------------
  free energy    TOTEN  =       -10.87309903 eV

  energy without entropy =      -10.87309903  energy(sigma->0) =      -10.87309903


--------------------------------------------------------------------------------------------------------




----------------------------------------- Iteration    1(   5)  ---------------------------------------


     EDDAV:  cpu time    1.1177: real time    1.1193
       DOS:  cpu time    0.0001: real time    0.0001
    CHARGE:  cpu time    0.0636: real time    0.0637
    MIXING:  cpu time    0.0084: real time    0.0084
    --------------------------------------------
      LOOP:  cpu time    1.1921: real time    1.1965

 eigenvalue-minimisations  :   384
 total energy-change (2. order) :-0.6159989E+00  (-0.5260376E+00)
 number of electron      98.9999922 magnetization       9.4000025
 augmentation part       59.3811818 magnetization       8.3463887

 Broyden mixing:
  rms(total) = 0.53652E+01    rms(broyden)= 0.53631E+01
  rms(prec ) = 0.54201E+01
  weight for this iteration     100.00

 Free energy of the ion-electron system (eV)
  ---------------------------------------------------
  alpha Z        PSCENC =         7.42941524
  Ewald energy   TEWEN  =     11833.27848497
  -Hartree energ DENC   =    -23238.96396440
  -exchange      EXHF   =         0.00000000
  -V(xc)+E(xc)   XCENC  =       411.90254552
  PAW double counting   =     11044.95461822   -11996.06289171
  entropy T*S    EENTRO =        -0.00000000
  eigenvalues    EBANDS =      -592.44756771
  atomic energy  EATOM  =     12518.42026192
  Solvation  Ediel_sol  =         0.00000000
  ---------------------------------------------------
  free energy    TOTEN  =       -11.48909795 eV

  energy without entropy =      -11.48909795  energy(sigma->0) =      -11.48909795


--------------------------------------------------------------------------------------------------------




----------------------------------------- Iteration    1(   6)  ---------------------------------------


    POTLOK:  cpu time    0.3129: real time    0.3133
    SETDIJ:  cpu time    0.0082: real time    0.0082
    EDDIAG:  cpu time    0.1856: real time    0.1860
  RMM-DIIS:  cpu time    0.8840: real time    0.8862
    ORTHCH:  cpu time    0.0123: real time    0.0123
       DOS:  cpu time    0.0001: real time    0.0001
    CHARGE:  cpu time    0.0635: real time    0.0637
    MIXING:  cpu time    0.0090: real time    0.0090
    --------------------------------------------
      LOOP:  cpu time    1.4791: real time    1.4850

 eigenvalue-minimisations  :   304
 total energy-change (2. order) :-0.9073034E+01  (-0.2593856E+01)
 number of electron      98.9999933 magnetization       0.1311712
 augmentation part       64.3334834 magnetization      -0.0391856

 Broyden mixing:
  rms(total) = 0.21735E+01    rms(broyden)= 0.21713E+01
  rms(prec ) = 0.21974E+01
  weight for this iteration     100.00

 eigenvalues of (default mixing * dielectric matrix)
  average eigenvalue GAMMA=   1.5963
  1.5963

 Free energy of the ion-electron system (eV)
  ---------------------------------------------------
  alpha Z        PSCENC =         7.42941524
  Ewald energy   TEWEN  =     11833.27848497
  -Hartree energ DENC   =    -23114.08001486
  -exchange      EXHF   =         0.00000000
  -V(xc)+E(xc)   XCENC  =       398.23846143
  PAW double counting   =     11054.34054957   -11986.06344285
  entropy T*S    EENTRO =         0.00000000
  eigenvalues    EBANDS =      -732.12584710
  atomic energy  EATOM  =     12518.42026192
  Solvation  Ediel_sol  =         0.00000000
  ---------------------------------------------------
  free energy    TOTEN  =       -20.56213167 eV

  energy without entropy =      -20.56213167  energy(sigma->0) =      -20.56213167


--------------------------------------------------------------------------------------------------------




----------------------------------------- Iteration    1(   7)  ---------------------------------------


    POTLOK:  cpu time    0.3138: real time    0.3139
    SETDIJ:  cpu time    0.0075: real time    0.0075
    EDDIAG:  cpu time    0.1856: real time    0.1858
  RMM-DIIS:  cpu time    0.8787: real time    0.8797
    ORTHCH:  cpu time    0.0122: real time    0.0122
       DOS:  cpu time    0.0001: real time    0.0001
    CHARGE:  cpu time    0.0636: real time    0.0637
    MIXING:  cpu time    0.0092: real time    0.0092
    --------------------------------------------
      LOOP:  cpu time    1.4740: real time    1.5462

 eigenvalue-minimisations  :   306
 total energy-change (2. order) :-0.6807185E+00  (-0.7228656E+00)
 number of electron      98.9999930 magnetization       0.6051257
 augmentation part       63.4519112 magnetization      -0.1302228

 Broyden mixing:
  rms(total) = 0.29753E+00    rms(broyden)= 0.29669E+00
  rms(prec ) = 0.33575E+00
  weight for this iteration     100.00

 eigenvalues of (default mixing * dielectric matrix)
  average eigenvalue GAMMA=   1.1579
  0.8838  1.4320

 Free energy of the ion-electron system (eV)
  ---------------------------------------------------
  alpha Z        PSCENC =         7.42941524
  Ewald energy   TEWEN  =     11833.27848497
  -Hartree energ DENC   =    -23221.20277416
  -exchange      EXHF   =         0.00000000
  -V(xc)+E(xc)   XCENC  =       398.49564907
  PAW double counting   =     11247.43258132   -12196.33550024
  entropy T*S    EENTRO =         0.00000000
  eigenvalues    EBANDS =      -608.76096824
  atomic energy  EATOM  =     12518.42026192
  Solvation  Ediel_sol  =         0.00000000
  ---------------------------------------------------
  free energy    TOTEN  =       -21.24285013 eV

  energy without entropy =      -21.24285013  energy(sigma->0) =      -21.24285013


--------------------------------------------------------------------------------------------------------




----------------------------------------- Iteration    1(   8)  ---------------------------------------


    POTLOK:  cpu time    0.3134: real time    0.3137
    SETDIJ:  cpu time    0.0079: real time    0.0078
    EDDIAG:  cpu time    0.1851: real time    0.1854
  RMM-DIIS:  cpu time    0.8658: real time    0.8664
    ORTHCH:  cpu time    0.0137: real time    0.0137
       DOS:  cpu time    0.0001: real time    0.0001
    CHARGE:  cpu time    0.0638: real time    0.0638
    MIXING:  cpu time    0.0099: real time    0.0099
    --------------------------------------------
      LOOP:  cpu time    1.4630: real time    1.4666

 eigenvalue-minimisations  :   305
 total energy-change (2. order) : 0.2410248E-01  (-0.1059912E+00)
 number of electron      98.9999932 magnetization       0.8112678
 augmentation part       63.6039741 magnetization      -0.0703468

 Broyden mixing:
  rms(total) = 0.13489E+00    rms(broyden)= 0.13462E+00
  rms(prec ) = 0.14751E+00
  weight for this iteration     100.00

 eigenvalues of (default mixing * dielectric matrix)
  average eigenvalue GAMMA=   1.0692
  1.4699  0.8688  0.8688

 Free energy of the ion-electron system (eV)
  ---------------------------------------------------
  alpha Z        PSCENC =         7.42941524
  Ewald energy   TEWEN  =     11833.27848497
  -Hartree energ DENC   =    -23221.87726066
  -exchange      EXHF   =         0.00000000
  -V(xc)+E(xc)   XCENC  =       398.15657199
  PAW double counting   =     11311.32721753   -12262.44047406
  entropy T*S    EENTRO =         0.00000000
  eigenvalues    EBANDS =      -605.51296458
  atomic energy  EATOM  =     12518.42026192
  Solvation  Ediel_sol  =         0.00000000
  ---------------------------------------------------
  free energy    TOTEN  =       -21.21874764 eV

  energy without entropy =      -21.21874764  energy(sigma->0) =      -21.21874764


--------------------------------------------------------------------------------------------------------




----------------------------------------- Iteration    1(   9)  ---------------------------------------


    POTLOK:  cpu time    0.3150: real time    0.3157
    SETDIJ:  cpu time    0.0076: real time    0.0076
    EDDIAG:  cpu time    0.1862: real time    0.1865
  RMM-DIIS:  cpu time    1.0055: real time    1.0063
    ORTHCH:  cpu time    0.0123: real time    0.0123
       DOS:  cpu time    0.0001: real time    0.0001
    CHARGE:  cpu time    0.0627: real time    0.0631
    MIXING:  cpu time    0.0105: real time    0.0105
    --------------------------------------------
      LOOP:  cpu time    1.6034: real time    1.6080

 eigenvalue-minimisations  :   374
 total energy-change (2. order) :-0.4896381E-02  (-0.1685080E-01)
 number of electron      98.9999932 magnetization       0.9396695
 augmentation part       63.6243132 magnetization      -0.0045382

 Broyden mixing:
  rms(total) = 0.10146E+00    rms(broyden)= 0.10144E+00
  rms(prec ) = 0.10888E+00
  weight for this iteration     100.00

 eigenvalues of (default mixing * dielectric matrix)
  average eigenvalue GAMMA=   1.2306
  1.9306  1.1280  1.1280  0.7358

 Free energy of the ion-electron system (eV)
  ---------------------------------------------------
  alpha Z        PSCENC =         7.42941524
  Ewald energy   TEWEN  =     11833.27848497
  -Hartree energ DENC   =    -23222.14720497
  -exchange      EXHF   =         0.00000000
  -V(xc)+E(xc)   XCENC  =       398.03758607
  PAW double counting   =     11357.69301632   -12310.95178418
  entropy T*S    EENTRO =         0.00000000
  eigenvalues    EBANDS =      -602.98341939
  atomic energy  EATOM  =     12518.42026192
  Solvation  Ediel_sol  =         0.00000000
  ---------------------------------------------------
  free energy    TOTEN  =       -21.22364402 eV

  energy without entropy =      -21.22364402  energy(sigma->0) =      -21.22364402


--------------------------------------------------------------------------------------------------------




----------------------------------------- Iteration    1(  10)  ---------------------------------------


    POTLOK:  cpu time    0.3148: real time    0.3148
    SETDIJ:  cpu time    0.0075: real time    0.0075
    EDDIAG:  cpu time    0.1856: real time    0.1857
  RMM-DIIS:  cpu time    0.8673: real time    0.8681
    ORTHCH:  cpu time    0.0122: real time    0.0122
       DOS:  cpu time    0.0001: real time    0.0001
    CHARGE:  cpu time    0.0636: real time    0.0636
    MIXING:  cpu time    0.0107: real time    0.0107
    --------------------------------------------
      LOOP:  cpu time    1.4656: real time    1.4689

 eigenvalue-minimisations  :   307
 total energy-change (2. order) : 0.1166686E-01  (-0.1905457E-02)
 number of electron      98.9999932 magnetization       1.0607137
 augmentation part       63.6367892 magnetization       0.0681834

 Broyden mixing:
  rms(total) = 0.64527E-01    rms(broyden)= 0.64521E-01
  rms(prec ) = 0.68790E-01
  weight for this iteration     100.00

 eigenvalues of (default mixing * dielectric matrix)
  average eigenvalue GAMMA=   1.3741
  2.6646  1.4511  1.1001  0.7654  0.8891

 Free energy of the ion-electron system (eV)
  ---------------------------------------------------
  alpha Z        PSCENC =         7.42941524
  Ewald energy   TEWEN  =     11833.27848497
  -Hartree energ DENC   =    -23219.69919026
  -exchange      EXHF   =         0.00000000
  -V(xc)+E(xc)   XCENC  =       397.86950490
  PAW double counting   =     11431.03607832   -12387.92159332
  entropy T*S    EENTRO =         0.00000000
  eigenvalues    EBANDS =      -601.62493893
  atomic energy  EATOM  =     12518.42026192
  Solvation  Ediel_sol  =         0.00000000
  ---------------------------------------------------
  free energy    TOTEN  =       -21.21197716 eV

  energy without entropy =      -21.21197716  energy(sigma->0) =      -21.21197716


--------------------------------------------------------------------------------------------------------




----------------------------------------- Iteration    1(  11)  ---------------------------------------


    POTLOK:  cpu time    0.3131: real time    0.3137
    SETDIJ:  cpu time    0.0075: real time    0.0075
    EDDIAG:  cpu time    0.1851: real time    0.1856
  RMM-DIIS:  cpu time    0.8911: real time    0.8916
    ORTHCH:  cpu time    0.0122: real time    0.0122
       DOS:  cpu time    0.0001: real time    0.0001
    CHARGE:  cpu time    0.0635: real time    0.0635
    MIXING:  cpu time    0.0114: real time    0.0114
    --------------------------------------------
      LOOP:  cpu time    1.4875: real time    1.4918

 eigenvalue-minimisations  :   304
 total energy-change (2. order) : 0.5986831E-02  (-0.1918041E-02)
 number of electron      98.9999932 magnetization       1.0059770
 augmentation part       63.6482379 magnetization      -0.0046201

 Broyden mixing:
  rms(total) = 0.23648E-01    rms(broyden)= 0.23639E-01
  rms(prec ) = 0.24950E-01
  weight for this iteration     100.00

 eigenvalues of (default mixing * dielectric matrix)
  average eigenvalue GAMMA=   1.6550
  4.2693  1.6845  1.2572  0.9851  0.9851  0.7489

 Free energy of the ion-electron system (eV)
  ---------------------------------------------------
  alpha Z        PSCENC =         7.42941524
  Ewald energy   TEWEN  =     11833.27848497
  -Hartree energ DENC   =    -23216.36333308
  -exchange      EXHF   =         0.00000000
  -V(xc)+E(xc)   XCENC  =       397.65158735
  PAW double counting   =     11527.95790917   -12489.64684775
  entropy T*S    EENTRO =         0.00000000
  eigenvalues    EBANDS =      -599.93346815
  atomic energy  EATOM  =     12518.42026192
  Solvation  Ediel_sol  =         0.00000000
  ---------------------------------------------------
  free energy    TOTEN  =       -21.20599033 eV

  energy without entropy =      -21.20599033  energy(sigma->0) =      -21.20599033


--------------------------------------------------------------------------------------------------------




----------------------------------------- Iteration    1(  12)  ---------------------------------------


    POTLOK:  cpu time    0.3132: real time    0.3132
    SETDIJ:  cpu time    0.0077: real time    0.0077
    EDDIAG:  cpu time    0.1852: real time    0.1856
  RMM-DIIS:  cpu time    0.8237: real time    0.8242
    ORTHCH:  cpu time    0.0123: real time    0.0123
       DOS:  cpu time    0.0001: real time    0.0001
    CHARGE:  cpu time    0.0636: real time    0.0636
    MIXING:  cpu time    0.0120: real time    0.0120
    --------------------------------------------
      LOOP:  cpu time    1.4211: real time    1.4250

 eigenvalue-minimisations  :   307
 total energy-change (2. order) :-0.4403125E-03  (-0.2985140E-03)
 number of electron      98.9999932 magnetization       0.9881246
 augmentation part       63.6393224 magnetization      -0.0097576

 Broyden mixing:
  rms(total) = 0.11193E-01    rms(broyden)= 0.11191E-01
  rms(prec ) = 0.12142E-01
  weight for this iteration     100.00

 eigenvalues of (default mixing * dielectric matrix)
  average eigenvalue GAMMA=   1.5874
  4.5482  1.6548  1.3590  1.0280  1.0280  0.7468  0.7468

 Free energy of the ion-electron system (eV)
  ---------------------------------------------------
  alpha Z        PSCENC =         7.42941524
  Ewald energy   TEWEN  =     11833.27848497
  -Hartree energ DENC   =    -23216.82924233
  -exchange      EXHF   =         0.00000000
  -V(xc)+E(xc)   XCENC  =       397.58998654
  PAW double counting   =     11561.96622951   -12525.38761667
  entropy T*S    EENTRO =         0.00000000
  eigenvalues    EBANDS =      -597.67394983
  atomic energy  EATOM  =     12518.42026192
  Solvation  Ediel_sol  =         0.00000000
  ---------------------------------------------------
  free energy    TOTEN  =       -21.20643064 eV

  energy without entropy =      -21.20643064  energy(sigma->0) =      -21.20643064


--------------------------------------------------------------------------------------------------------




----------------------------------------- Iteration    1(  13)  ---------------------------------------


    POTLOK:  cpu time    0.3132: real time    0.3137
    SETDIJ:  cpu time    0.0075: real time    0.0075
    EDDIAG:  cpu time    0.1856: real time    0.1857
  RMM-DIIS:  cpu time    0.8845: real time    0.8865
    ORTHCH:  cpu time    0.0122: real time    0.0122
       DOS:  cpu time    0.0001: real time    0.0001
    CHARGE:  cpu time    0.0637: real time    0.0637
    MIXING:  cpu time    0.0127: real time    0.0128
    --------------------------------------------
      LOOP:  cpu time    1.4829: real time    1.4884

 eigenvalue-minimisations  :   304
 total energy-change (2. order) : 0.1448748E-03  (-0.5221522E-04)
 number of electron      98.9999932 magnetization       0.9967307
 augmentation part       63.6403608 magnetization       0.0027467

 Broyden mixing:
  rms(total) = 0.63374E-02    rms(broyden)= 0.63364E-02
  rms(prec ) = 0.69718E-02
  weight for this iteration     100.00

 eigenvalues of (default mixing * dielectric matrix)
  average eigenvalue GAMMA=   1.6142
  4.6521  1.8995  1.5698  1.1339  1.1339  0.7580  0.8832  0.8832

 Free energy of the ion-electron system (eV)
  ---------------------------------------------------
  alpha Z        PSCENC =         7.42941524
  Ewald energy   TEWEN  =     11833.27848497
  -Hartree energ DENC   =    -23216.84466619
  -exchange      EXHF   =         0.00000000
  -V(xc)+E(xc)   XCENC  =       397.57241242
  PAW double counting   =     11567.68721412   -12531.39234132
  entropy T*S    EENTRO =         0.00000000
  eigenvalues    EBANDS =      -597.35706692
  atomic energy  EATOM  =     12518.42026192
  Solvation  Ediel_sol  =         0.00000000
  ---------------------------------------------------
  free energy    TOTEN  =       -21.20628577 eV

  energy without entropy =      -21.20628577  energy(sigma->0) =      -21.20628577


--------------------------------------------------------------------------------------------------------




----------------------------------------- Iteration    1(  14)  ---------------------------------------


    POTLOK:  cpu time    0.3143: real time    0.3143
    SETDIJ:  cpu time    0.0076: real time    0.0076
    EDDIAG:  cpu time    0.1851: real time    0.1856
  RMM-DIIS:  cpu time    0.8323: real time    0.8329
    ORTHCH:  cpu time    0.0129: real time    0.0129
       DOS:  cpu time    0.0001: real time    0.0001
    CHARGE:  cpu time    0.0655: real time    0.0655
    MIXING:  cpu time    0.0143: real time    0.0143
    --------------------------------------------
      LOOP:  cpu time    1.4354: real time    1.4392

 eigenvalue-minimisations  :   304
 total energy-change (2. order) : 0.8120164E-04  (-0.3934718E-04)
 number of electron      98.9999932 magnetization       1.0026514
 augmentation part       63.6452590 magnetization       0.0088378

 Broyden mixing:
  rms(total) = 0.26033E-02    rms(broyden)= 0.26017E-02
  rms(prec ) = 0.28393E-02
  weight for this iteration     100.00

 eigenvalues of (default mixing * dielectric matrix)
  average eigenvalue GAMMA=   1.7148
  4.6691  3.1523  1.6422  1.3836  1.0787  1.0787  0.7443  0.8423  0.8423

 Free energy of the ion-electron system (eV)
  ---------------------------------------------------
  alpha Z        PSCENC =         7.42941524
  Ewald energy   TEWEN  =     11833.27848497
  -Hartree energ DENC   =    -23216.38687818
  -exchange      EXHF   =         0.00000000
  -V(xc)+E(xc)   XCENC  =       397.55316803
  PAW double counting   =     11570.24371272   -12534.08693588
  entropy T*S    EENTRO =         0.00000000
  eigenvalues    EBANDS =      -597.65743340
  atomic energy  EATOM  =     12518.42026192
  Solvation  Ediel_sol  =         0.00000000
  ---------------------------------------------------
  free energy    TOTEN  =       -21.20620457 eV

  energy without entropy =      -21.20620457  energy(sigma->0) =      -21.20620457


--------------------------------------------------------------------------------------------------------




----------------------------------------- Iteration    1(  15)  ---------------------------------------


    POTLOK:  cpu time    0.3163: real time    0.3169
    SETDIJ:  cpu time    0.0083: real time    0.0084
    EDDIAG:  cpu time    0.1863: real time    0.1864
  RMM-DIIS:  cpu time    0.8741: real time    0.8747
    ORTHCH:  cpu time    0.0123: real time    0.0123
       DOS:  cpu time    0.0001: real time    0.0001
    CHARGE:  cpu time    0.0640: real time    0.0640
    MIXING:  cpu time    0.0142: real time    0.0142
    --------------------------------------------
      LOOP:  cpu time    1.4790: real time    1.4832

 eigenvalue-minimisations  :   311
 total energy-change (2. order) :-0.9225703E-05  (-0.9833885E-05)
 number of electron      98.9999932 magnetization       1.0004851
 augmentation part       63.6456172 magnetization       0.0061638

 Broyden mixing:
  rms(total) = 0.12763E-02    rms(broyden)= 0.12755E-02
  rms(prec ) = 0.13934E-02
  weight for this iteration     100.00

 eigenvalues of (default mixing * dielectric matrix)
  average eigenvalue GAMMA=   1.7120
  4.7658  3.2869  1.6439  1.6439  1.1725  1.1725  0.9342  0.9342  0.7428  0.8233

 Free energy of the ion-electron system (eV)
  ---------------------------------------------------
  alpha Z        PSCENC =         7.42941524
  Ewald energy   TEWEN  =     11833.27848497
  -Hartree energ DENC   =    -23216.04934717
  -exchange      EXHF   =         0.00000000
  -V(xc)+E(xc)   XCENC  =       397.54690917
  PAW double counting   =     11571.87189836   -12535.84339570
  entropy T*S    EENTRO =         0.00000000
  eigenvalues    EBANDS =      -597.86044057
  atomic energy  EATOM  =     12518.42026192
  Solvation  Ediel_sol  =         0.00000000
  ---------------------------------------------------
  free energy    TOTEN  =       -21.20621379 eV

  energy without entropy =      -21.20621379  energy(sigma->0) =      -21.20621379


--------------------------------------------------------------------------------------------------------




----------------------------------------- Iteration    1(  16)  ---------------------------------------


    POTLOK:  cpu time    0.3149: real time    0.3153
    SETDIJ:  cpu time    0.0075: real time    0.0075
    EDDIAG:  cpu time    0.1848: real time    0.1850
  RMM-DIIS:  cpu time    0.8879: real time    0.8889
    ORTHCH:  cpu time    0.0122: real time    0.0122
       DOS:  cpu time    0.0001: real time    0.0001
    CHARGE:  cpu time    0.0635: real time    0.0635
    MIXING:  cpu time    0.0151: real time    0.0151
    --------------------------------------------
      LOOP:  cpu time    1.4895: real time    1.4939

 eigenvalue-minimisations  :   304
 total energy-change (2. order) :-0.5453092E-05  (-0.2217773E-05)
 number of electron      98.9999932 magnetization       0.9994678
 augmentation part       63.6438125 magnetization       0.0051063

 Broyden mixing:
  rms(total) = 0.58982E-03    rms(broyden)= 0.58939E-03
  rms(prec ) = 0.64135E-03
  weight for this iteration     100.00

 eigenvalues of (default mixing * dielectric matrix)
  average eigenvalue GAMMA=   1.7400
  4.9111  3.3690  2.1684  1.4808  1.4808  1.1685  1.1685  0.9181  0.9181  0.7439
  0.8123

 Free energy of the ion-electron system (eV)
  ---------------------------------------------------
  alpha Z        PSCENC =         7.42941524
  Ewald energy   TEWEN  =     11833.27848497
  -Hartree energ DENC   =    -23215.97726017
  -exchange      EXHF   =         0.00000000
  -V(xc)+E(xc)   XCENC  =       397.54780940
  PAW double counting   =     11572.31007991   -12536.33809733
  entropy T*S    EENTRO =         0.00000000
  eigenvalues    EBANDS =      -597.87691318
  atomic energy  EATOM  =     12518.42026192
  Solvation  Ediel_sol  =         0.00000000
  ---------------------------------------------------
  free energy    TOTEN  =       -21.20621924 eV

  energy without entropy =      -21.20621924  energy(sigma->0) =      -21.20621924


--------------------------------------------------------------------------------------------------------




----------------------------------------- Iteration    1(  17)  ---------------------------------------


    POTLOK:  cpu time    0.3143: real time    0.3144
    SETDIJ:  cpu time    0.0075: real time    0.0075
    EDDIAG:  cpu time    0.1847: real time    0.1853
  RMM-DIIS:  cpu time    0.8151: real time    0.8155
    ORTHCH:  cpu time    0.0121: real time    0.0121
       DOS:  cpu time    0.0001: real time    0.0001
    CHARGE:  cpu time    0.0634: real time    0.0635
    MIXING:  cpu time    0.0207: real time    0.0209
    --------------------------------------------
      LOOP:  cpu time    1.4213: real time    1.4252

 eigenvalue-minimisations  :   301
 total energy-change (2. order) :-0.4612240E-05  (-0.6658788E-06)
 number of electron      98.9999932 magnetization       1.0000196
 augmentation part       63.6440748 magnetization       0.0055331

 Broyden mixing:
  rms(total) = 0.38005E-03    rms(broyden)= 0.37986E-03
  rms(prec ) = 0.40441E-03
  weight for this iteration     100.00

 eigenvalues of (default mixing * dielectric matrix)
  average eigenvalue GAMMA=   1.7563
  4.9410  3.6361  2.6669  1.6012  1.6012  1.2652  0.9959  0.9959  0.9214  0.8629
  0.8429  0.7453

 Free energy of the ion-electron system (eV)
  ---------------------------------------------------
  alpha Z        PSCENC =         7.42941524
  Ewald energy   TEWEN  =     11833.27848497
  -Hartree energ DENC   =    -23215.89201663
  -exchange      EXHF   =         0.00000000
  -V(xc)+E(xc)   XCENC  =       397.54620653
  PAW double counting   =     11572.46352187   -12536.51321259
  entropy T*S    EENTRO =         0.00000000
  eigenvalues    EBANDS =      -597.93888516
  atomic energy  EATOM  =     12518.42026192
  Solvation  Ediel_sol  =         0.00000000
  ---------------------------------------------------
  free energy    TOTEN  =       -21.20622386 eV

  energy without entropy =      -21.20622386  energy(sigma->0) =      -21.20622386


--------------------------------------------------------------------------------------------------------




----------------------------------------- Iteration    1(  18)  ---------------------------------------


    POTLOK:  cpu time    0.3142: real time    0.3143
    SETDIJ:  cpu time    0.0075: real time    0.0075
    EDDIAG:  cpu time    0.1851: real time    0.1853
  RMM-DIIS:  cpu time    0.5764: real time    0.5770
    ORTHCH:  cpu time    0.0122: real time    0.0122
       DOS:  cpu time    0.0001: real time    0.0001
    --------------------------------------------
      LOOP:  cpu time    1.0987: real time    1.1022

 eigenvalue-minimisations  :   194
 total energy-change (2. order) :-0.8103434E-06  (-0.6481140E-07)
 number of electron      98.9999932 magnetization       1.0000196
 augmentation part       63.6440748 magnetization       0.0055331

 Free energy of the ion-electron system (eV)
  ---------------------------------------------------
  alpha Z        PSCENC =         7.42941524
  Ewald energy   TEWEN  =     11833.27848497
  -Hartree energ DENC   =    -23215.89945405
  -exchange      EXHF   =         0.00000000
  -V(xc)+E(xc)   XCENC  =       397.54635966
  PAW double counting   =     11572.29207937   -12536.33962713
  entropy T*S    EENTRO =         0.00000000
  eigenvalues    EBANDS =      -597.93374465
  atomic energy  EATOM  =     12518.42026192
  Solvation  Ediel_sol  =         0.00000000
  ---------------------------------------------------
  free energy    TOTEN  =       -21.20622467 eV

  energy without entropy =      -21.20622467  energy(sigma->0) =      -21.20622467


--------------------------------------------------------------------------------------------------------




 average (electrostatic) potential at core
  the test charge radii are     0.9430
  (the norm of the test charge is              1.0000)
       1 -74.4094       2 -74.4874       3 -74.5104       4 -74.5599       5 -74.2546
       6 -74.2659       7 -74.2189       8 -74.5842       9 -74.6376
 
 
 
 E-fermi :  -3.5802     XC(G=0):  -0.4758     alpha+bet : -0.1790


 spin component 1

 k-point     1 :       0.0000    0.0000    0.0000
  band No.  band energies     occupation 
      1      -9.9941      1.00000
      2      -8.0582      1.00000
      3      -7.9428      1.00000
      4      -7.7144      1.00000
      5      -7.3175      1.00000
      6      -7.1973      1.00000
      7      -7.0989      1.00000
      8      -7.0399      1.00000
      9      -6.9850      1.00000
     10      -6.9567      1.00000
     11      -6.8597      1.00000
     12      -6.6549      1.00000
     13      -6.5611      1.00000
     14      -6.4802      1.00000
     15      -6.3963      1.00000
     16      -6.3477      1.00000
     17      -6.3327      1.00000
     18      -6.2919      1.00000
     19      -6.2312      1.00000
     20      -6.1673      1.00000
     21      -6.1037      1.00000
     22      -5.9104      1.00000
     23      -5.8421      1.00000
     24      -5.8011      1.00000
     25      -5.7307      1.00000
     26      -5.7093      1.00000
     27      -5.6808      1.00000
     28      -5.6305      1.00000
     29      -5.6055      1.00000
     30      -5.5718      1.00000
     31      -5.5162      1.00000
     32      -5.4984      1.00000
     33      -5.4880      1.00000
     34      -5.4591      1.00000
     35      -5.4504      1.00000
     36      -5.4391      1.00000
     37      -5.3657      1.00000
     38      -5.3405      1.00000
     39      -5.2738      1.00000
     40      -5.2443      1.00000
     41      -5.2404      1.00000
     42      -5.2055      1.00000
     43      -5.1754      1.00000
     44      -5.1413      1.00000
     45      -5.1232      1.00000
     46      -5.0730      1.00000
     47      -5.0237      1.00000
     48      -5.0197      1.00000
     49      -4.7443      1.00000
     50      -3.5980      1.00000
     51      -3.0229      0.00000
     52      -2.9201      0.00000
     53      -2.7181      0.00000
     54      -2.6064      0.00000
     55      -2.0224      0.00000
     56      -1.3661      0.00000
     57      -1.0043      0.00000
     58      -0.8109      0.00000
     59      -0.5374      0.00000
     60      -0.3228      0.00000
     61      -0.2259      0.00000
     62      -0.0946      0.00000
     63       0.0304      0.00000
     64       0.2935      0.00000
     65       0.3552      0.00000
     66       0.3744      0.00000
     67       0.4144      0.00000
     68       0.4702      0.00000
     69       0.4962      0.00000
     70       0.4992      0.00000
     71       0.5335      0.00000
     72       0.6315      0.00000
     73       0.6613      0.00000
     74       0.6740      0.00000
     75       0.7305      0.00000
     76       0.7702      0.00000

 spin component 2

 k-point     1 :       0.0000    0.0000    0.0000
  band No.  band energies     occupation 
      1      -9.9496      1.00000
      2      -8.0135      1.00000
      3      -7.9034      1.00000
      4      -7.6793      1.00000
      5      -7.2703      1.00000
      6      -7.1450      1.00000
      7      -7.0767      1.00000
      8      -7.0126      1.00000
      9      -6.9429      1.00000
     10      -6.9351      1.00000
     11      -6.8286      1.00000
     12      -6.6168      1.00000
     13      -6.5328      1.00000
     14      -6.4400      1.00000
     15      -6.3632      1.00000
     16      -6.3142      1.00000
     17      -6.3029      1.00000
     18      -6.2660      1.00000
     19      -6.2015      1.00000
     20      -6.1286      1.00000
     21      -6.0808      1.00000
     22      -5.8584      1.00000
     23      -5.7993      1.00000
     24      -5.7677      1.00000
     25      -5.7032      1.00000
     26      -5.6754      1.00000
     27      -5.6311      1.00000
     28      -5.5962      1.00000
     29      -5.5691      1.00000
     30      -5.5296      1.00000
     31      -5.4929      1.00000
     32      -5.4700      1.00000
     33      -5.4609      1.00000
     34      -5.4313      1.00000
     35      -5.4121      1.00000
     36      -5.4070      1.00000
     37      -5.3264      1.00000
     38      -5.3070      1.00000
     39      -5.2320      1.00000
     40      -5.2221      1.00000
     41      -5.2108      1.00000
     42      -5.1791      1.00000
     43      -5.1543      1.00000
     44      -5.1213      1.00000
     45      -5.0651      1.00000
     46      -5.0319      1.00000
     47      -4.9847      1.00000
     48      -4.9715      1.00000
     49      -4.6855      1.00000
     50      -3.2973      0.00000
     51      -2.9176      0.00000
     52      -2.8256      0.00000
     53      -2.6228      0.00000
     54      -2.5277      0.00000
     55      -1.9470      0.00000
     56      -1.0668      0.00000
     57      -0.8527      0.00000
     58      -0.6799      0.00000
     59      -0.3987      0.00000
     60      -0.2240      0.00000
     61      -0.1541      0.00000
     62       0.0261      0.00000
     63       0.0730      0.00000
     64       0.3665      0.00000
     65       0.3841      0.00000
     66       0.4497      0.00000
     67       0.4671      0.00000
     68       0.5044      0.00000
     69       0.5212      0.00000
     70       0.5677      0.00000
     71       0.5763      0.00000
     72       0.6964      0.00000
     73       0.7226      0.00000
     74       0.7360      0.00000
     75       0.7706      0.00000
     76       0.8129      0.00000


--------------------------------------------------------------------------------------------------------


 soft charge-density along one line, spin component           1
         0         1         2         3         4         5         6         7         8         9
 total charge-density along one line
 
 soft charge-density along one line, spin component           2
         0         1         2         3         4         5         6         7         8         9
 total charge-density along one line
 
 pseudopotential strength for first ion, spin component:           1
-10.636  -0.003   0.001   0.004   0.001   1.100   0.002  -0.001
 -0.003 -10.663  -0.000  -0.001  -0.003   0.002   1.119   0.000
  0.001  -0.000 -10.657   0.002  -0.006  -0.001   0.000   1.114
  0.004  -0.001   0.002 -10.651  -0.012  -0.003   0.001  -0.002
  0.001  -0.003  -0.006  -0.012 -10.640  -0.001   0.002   0.004
  1.100   0.002  -0.001  -0.003  -0.001   6.242  -0.002   0.000
  0.002   1.119   0.000   0.001   0.002  -0.002   6.232  -0.000
 -0.001   0.000   1.114  -0.002   0.004   0.000  -0.000   6.236
 -0.003   0.001  -0.002   1.110   0.009   0.002  -0.001   0.001
 -0.001   0.002   0.004   0.009   1.103   0.001  -0.001  -0.003
  0.000  -0.000   0.001   0.002  -0.001  -0.000  -0.001   0.002
  0.000  -0.001   0.001   0.003  -0.001  -0.000  -0.001   0.005
  0.001   0.022   0.001  -0.000   0.003  -0.001  -0.013  -0.001
 -0.000  -0.003   0.027   0.001   0.000   0.000   0.002  -0.016
 -0.003  -0.000   0.000   0.022  -0.000   0.002   0.000  -0.001
  0.001   0.023   0.001  -0.000   0.003  -0.000  -0.011  -0.001
 -0.000  -0.003   0.029   0.001  -0.000   0.000   0.002  -0.015
 -0.003  -0.000   0.001   0.023  -0.002   0.001   0.000  -0.001
 pseudopotential strength for first ion, spin component:           2
-10.627  -0.003   0.000   0.002  -0.002   1.092   0.002  -0.000
 -0.003 -10.655  -0.001  -0.002  -0.004   0.002   1.111   0.000
  0.000  -0.001 -10.647   0.004  -0.002  -0.000   0.000   1.106
  0.002  -0.002   0.004 -10.636  -0.001  -0.001   0.002  -0.003
 -0.002  -0.004  -0.002  -0.001 -10.608   0.002   0.003   0.001
  1.092   0.002  -0.000  -0.001   0.002   6.249  -0.002   0.000
  0.002   1.111   0.000   0.002   0.003  -0.002   6.238  -0.001
 -0.000   0.000   1.106  -0.003   0.001   0.000  -0.001   6.242
 -0.001   0.002  -0.003   1.098   0.001   0.001  -0.001   0.002
  0.002   0.003   0.001   0.001   1.078  -0.001  -0.002  -0.000
  0.000  -0.000   0.002  -0.000  -0.000  -0.000  -0.001   0.002
  0.000  -0.001   0.004  -0.000  -0.000  -0.000  -0.001   0.004
  0.001   0.022   0.002  -0.000   0.003  -0.001  -0.013  -0.001
 -0.000  -0.003   0.027   0.003   0.001   0.000   0.002  -0.016
 -0.003  -0.000  -0.000   0.023   0.002   0.002   0.000   0.000
  0.001   0.023   0.002  -0.000   0.003  -0.001  -0.011  -0.001
 -0.000  -0.004   0.029   0.003   0.001   0.000   0.002  -0.015
 -0.004  -0.000  -0.000   0.025   0.003   0.002   0.000  -0.000
 total augmentation occupancy for first ion, spin component:           1
  1.953  -0.002  -0.001  -0.000  -0.000  -0.010  -0.000   0.000  -0.001   0.001   0.000  -0.000  -0.013  -0.002   0.010   0.004
 -0.002   1.952  -0.002  -0.001  -0.001  -0.000  -0.004   0.002   0.001   0.002   0.001  -0.000  -0.094   0.003  -0.003   0.038
 -0.001  -0.002   1.957   0.006   0.004   0.000   0.002  -0.014  -0.005  -0.002  -0.000   0.003  -0.009  -0.063   0.025   0.002
 -0.000  -0.001   0.006   1.960  -0.005  -0.001   0.001  -0.005  -0.008   0.004   0.010   0.000  -0.003   0.007  -0.078   0.000
 -0.000  -0.001   0.004  -0.005   1.954   0.001   0.002  -0.002   0.004  -0.022  -0.012  -0.003  -0.008   0.002  -0.020   0.003
 -0.010  -0.000   0.000  -0.001   0.001   0.005   0.001   0.000  -0.001  -0.000   0.001   0.000  -0.005  -0.000   0.003   0.000
 -0.000  -0.004   0.002   0.001   0.002   0.001   0.010   0.000   0.000   0.001  -0.006   0.001  -0.024   0.002  -0.000   0.001
  0.000   0.002  -0.014  -0.005  -0.002   0.000   0.000   0.008  -0.001  -0.000   0.020  -0.005  -0.002  -0.020   0.005   0.000
 -0.001   0.001  -0.005  -0.008   0.004  -0.001   0.000  -0.001   0.011   0.001   0.000  -0.002  -0.000  -0.002  -0.028   0.000
  0.001   0.002  -0.002   0.004  -0.022  -0.000   0.001  -0.000   0.001   0.005   0.004  -0.000  -0.003  -0.000  -0.007   0.000
  0.000   0.001  -0.000   0.010  -0.012   0.001  -0.006   0.020   0.000   0.004   1.641  -0.097   0.033  -0.275  -0.042  -0.004
 -0.000  -0.000   0.003   0.000  -0.003   0.000   0.001  -0.005  -0.002  -0.000  -0.097   0.010  -0.003   0.028   0.008   0.000
 -0.013  -0.094  -0.009  -0.003  -0.008  -0.005  -0.024  -0.002  -0.000  -0.003   0.033  -0.003   0.075  -0.003   0.000  -0.006
 -0.002   0.003  -0.063   0.007   0.002  -0.000   0.002  -0.020  -0.002  -0.000  -0.275   0.028  -0.003   0.097   0.007   0.001
  0.010  -0.003   0.025  -0.078  -0.020   0.003  -0.000   0.005  -0.028  -0.007  -0.042   0.008   0.000   0.007   0.096   0.000
  0.004   0.038   0.002   0.000   0.003   0.000   0.001   0.000   0.000   0.000  -0.004   0.000  -0.006   0.001   0.000   0.001
  0.000  -0.004   0.040   0.003   0.000   0.000  -0.000   0.001   0.000   0.000   0.034  -0.003   0.001  -0.010  -0.001  -0.000
 -0.005   0.000  -0.004   0.038   0.006  -0.000   0.000  -0.000   0.001   0.000   0.006  -0.001   0.000  -0.001  -0.006  -0.000
 total augmentation occupancy for first ion, spin component:           2
 -0.000   0.000  -0.000  -0.001  -0.002   0.000  -0.000   0.000   0.000   0.001  -0.000  -0.000   0.001  -0.000  -0.002  -0.000
  0.000  -0.001  -0.000  -0.000  -0.001  -0.000  -0.000   0.000   0.000   0.000  -0.000  -0.000  -0.001  -0.000  -0.001   0.000
 -0.000  -0.000  -0.001   0.001   0.002   0.000   0.000  -0.000  -0.000  -0.001   0.000  -0.000   0.000  -0.000   0.002   0.000
 -0.001  -0.000   0.001   0.003   0.006   0.000   0.000  -0.000  -0.001  -0.002   0.001   0.001   0.000   0.002   0.006  -0.000
 -0.002  -0.001   0.002   0.006   0.012   0.001   0.000  -0.001  -0.002  -0.004   0.003   0.000   0.001   0.003   0.013  -0.000
  0.000  -0.000   0.000   0.000   0.001   0.000  -0.000  -0.000  -0.000  -0.000   0.000   0.000   0.000   0.000   0.001  -0.000
 -0.000  -0.000   0.000   0.000   0.000  -0.000  -0.000  -0.000  -0.000  -0.000   0.000   0.000   0.000   0.000   0.000  -0.000
  0.000   0.000  -0.000  -0.000  -0.001  -0.000  -0.000   0.000   0.000   0.000  -0.000   0.000  -0.000   0.000  -0.001   0.000
  0.000   0.000  -0.000  -0.001  -0.002  -0.000  -0.000   0.000   0.000   0.001  -0.000  -0.000  -0.000  -0.000  -0.002   0.000
  0.001   0.000  -0.001  -0.002  -0.004  -0.000  -0.000   0.000   0.001   0.001  -0.000  -0.000  -0.000  -0.001  -0.003   0.000
 -0.000  -0.000   0.000   0.001   0.003   0.000   0.000  -0.000  -0.000  -0.000  -0.006  -0.000   0.000  -0.000   0.004  -0.000
 -0.000  -0.000  -0.000   0.001   0.000   0.000   0.000   0.000  -0.000  -0.000  -0.000   0.000  -0.000   0.000   0.000   0.000
  0.001  -0.001   0.000   0.000   0.001   0.000   0.000  -0.000  -0.000  -0.000   0.000  -0.000  -0.000   0.000   0.001  -0.000
 -0.000  -0.000  -0.000   0.002   0.003   0.000   0.000   0.000  -0.000  -0.001  -0.000   0.000   0.000   0.000   0.002   0.000
 -0.002  -0.001   0.002   0.006   0.013   0.001   0.000  -0.001  -0.002  -0.003   0.004   0.000   0.001   0.002   0.011  -0.000
 -0.000   0.000   0.000  -0.000  -0.000  -0.000  -0.000   0.000   0.000   0.000  -0.000   0.000  -0.000   0.000  -0.000   0.000
 -0.000  -0.000  -0.000   0.000   0.000   0.000   0.000  -0.000  -0.000  -0.000   0.000  -0.000   0.000   0.000   0.000  -0.000
 -0.000  -0.000  -0.000   0.000   0.001   0.000   0.000  -0.000  -0.000  -0.000   0.000   0.000  -0.000   0.000  -0.000  -0.000


------------------------ aborting loop because EDIFF is reached ----------------------------------------


 


 total charge     
 
# of ion     s       p       d       tot
----------------------------------------
  1        0.467   0.138   9.291   9.897
  2        0.446   0.213   9.269   9.928
  3        0.445   0.212   9.271   9.927
  4        0.438   0.247   9.254   9.939
  5        0.466   0.111   9.306   9.883
  6        0.475   0.115   9.290   9.880
  7        0.482   0.105   9.289   9.877
  8        0.438   0.251   9.254   9.942
  9        0.443   0.263   9.238   9.943
------------------------------------------------
tot        4.100   1.654  83.461  89.216
 


 magnetization (x)
 
# of ion     s       p       d       tot
----------------------------------------
  1       -0.002   0.007   0.016   0.021
  2        0.006   0.023  -0.004   0.025
  3        0.009   0.021  -0.005   0.025
  4        0.012   0.013   0.010   0.035
  5        0.041   0.000  -0.000   0.041
  6        0.054   0.013   0.011   0.078
  7        0.069   0.010   0.007   0.086
  8        0.004   0.010   0.015   0.028
  9        0.019  -0.002   0.044   0.061
------------------------------------------------
tot        0.210   0.094   0.095   0.399
 
    CHARGE:  cpu time    0.0636: real time    0.0636
    FORLOC:  cpu time    0.0120: real time    0.0120
    FORNL :  cpu time    0.4732: real time    0.4734
    STRESS:  cpu time    0.4467: real time    0.4470
    FORCOR:  cpu time    0.3137: real time    0.3138
    FORHAR:  cpu time    0.0410: real time    0.0410
    MIXING:  cpu time    0.0167: real time    0.0167
    OFIELD:  cpu time    0.0001: real time    0.0001

  FORCE on cell =-STRESS in cart. coord.  units (eV):
  Direction    XX          YY          ZZ          XY          YZ          ZX
  --------------------------------------------------------------------------------------
  Alpha Z     7.42942     7.42942     7.42942
  Ewald    2840.43845  5182.74424  3810.09081   321.03898   100.67696  -775.93597
  Hartree  6789.57465  8846.48421  7579.90071   276.51889    97.06097  -651.00734
  E(xc)    -577.84380  -577.22117  -577.47279     0.08858     0.02048    -0.23100
  Local  -10501.66036-14895.39885-12253.43764  -596.35004  -198.53861  1422.87580
  n-local  -221.32944  -220.08380  -221.41136    -0.00227     0.09284     0.18400
  augment   844.85542   841.16842   840.88132    -0.63502     0.23493     1.89441
  Kinetic   816.11054   812.59074   811.77554    -0.71440     0.30303     2.22341
  Fock        0.00000     0.00000     0.00000     0.00000     0.00000     0.00000
  -------------------------------------------------------------------------------------
  Total      -2.42512    -2.28678    -2.24400    -0.05528    -0.14940     0.00332
  in kB      -0.48731    -0.45951    -0.45091    -0.01111    -0.03002     0.00067
  external pressure =       -0.47 kB  Pullay stress =        0.00 kB


 VOLUME and BASIS-vectors are now :
 -----------------------------------------------------------------------------
  energy-cutoff  :      295.45
  volume of cell :     7973.38
      direct lattice vectors                 reciprocal lattice vectors
    19.977794279  0.000000000  0.000000000     0.050055576  0.000000000  0.000000000
     0.000000000 19.977794279  0.000000000     0.000000000  0.050055576  0.000000000
     0.000000000  0.000000000 19.977794279     0.000000000  0.000000000  0.050055576

  length of vectors
    19.977794279 19.977794279 19.977794279     0.050055576  0.050055576  0.050055576


 FORCES acting on ions
    electron-ion (+dipol)            ewald-force                    non-local-force                 convergence-correction
 -----------------------------------------------------------------------------------------------
   -.210E+03 0.119E+03 -.118E+04   0.209E+03 -.118E+03 0.117E+04   0.100E+01 -.130E+01 0.104E+02   0.269E-02 -.171E-02 0.143E-01
   0.829E+03 -.650E+03 -.535E+03   -.825E+03 0.645E+03 0.531E+03   -.440E+01 0.489E+01 0.445E+01   -.772E-02 0.110E-01 0.409E-02
   0.899E+03 0.617E+03 -.445E+03   -.894E+03 -.612E+03 0.441E+03   -.523E+01 -.514E+01 0.382E+01   -.951E-02 -.112E-01 0.228E-02
   -.847E+03 -.675E+03 -.364E+03   0.843E+03 0.671E+03 0.363E+03   0.321E+01 0.330E+01 0.156E+01   0.673E-02 0.490E-02 0.240E-02
   -.838E+03 -.454E+02 0.833E+03   0.831E+03 0.445E+02 -.824E+03   0.676E+01 0.959E+00 -.874E+01   0.927E-02 -.838E-03 -.483E-02
   0.149E+03 -.106E+04 0.439E+03   -.149E+03 0.105E+04 -.432E+03   -.191E+00 0.790E+01 -.701E+01   -.289E-03 0.100E-01 -.554E-02
   0.249E+03 0.967E+03 0.552E+03   -.248E+03 -.960E+03 -.544E+03   -.124E+01 -.690E+01 -.773E+01   -.918E-03 -.810E-02 -.587E-02
   -.771E+03 0.803E+03 -.191E+03   0.768E+03 -.799E+03 0.190E+03   0.273E+01 -.385E+01 0.128E+01   0.533E-02 -.511E-02 0.556E-03
   0.538E+03 -.740E+02 0.901E+03   -.537E+03 0.739E+02 -.898E+03   -.160E+01 0.131E+00 -.275E+01   -.508E-02 -.695E-03 -.546E-03
 -----------------------------------------------------------------------------------------------
   -.111E+01 0.745E-01 0.471E+01   0.000E+00 -.284E-13 -.114E-12   0.105E+01 -.140E-01 -.476E+01   0.497E-03 -.180E-02 0.682E-02
 
 
 POSITION                                       TOTAL-FORCE (eV/Angst)
 -----------------------------------------------------------------------------------
     10.25773      9.79066     12.25303        -0.012539     -0.038828      0.003270
      8.73395     11.17690     10.92533         0.031941      0.025448      0.043344
      8.57328      8.80798     10.75121         0.032869     -0.048092      0.036386
     11.16383     11.12975     10.46576        -0.039191      0.018716     -0.004083
     11.72488     10.12279      8.35662        -0.022963      0.036277      0.031414
      9.69204     12.50322      9.20820         0.044154      0.000498     -0.046788
      9.36828      7.56312      8.89293        -0.018480      0.049328     -0.069087
     10.99476      8.73394     10.19109         0.002915     -0.048979      0.025392
      9.39131     10.07172      8.85590        -0.018707      0.005632     -0.019848
 -----------------------------------------------------------------------------------
    total drift:                               -0.053443      0.058659     -0.046322


--------------------------------------------------------------------------------------------------------



  FREE ENERGIE OF THE ION-ELECTRON SYSTEM (eV)
  ---------------------------------------------------
  free  energy   TOTEN  =       -21.20622467 eV

  energy  without entropy=      -21.20622467  energy(sigma->0) =      -21.20622467
 


--------------------------------------------------------------------------------------------------------


    POTLOK:  cpu time    0.3258: real time    0.3261


--------------------------------------------------------------------------------------------------------




--------------------------------------------------------------------------------------------------------


    WAVPRE:  cpu time    0.0265: real time    0.0268
 FEWALD executed in parallel
    FEWALD:  cpu time    0.0010: real time    0.0010
    ORTHCH:  cpu time    0.0543: real time    0.0543
     LOOP+:  cpu time   26.3488: real time   26.5241


----------------------------------------- Iteration    2(   1)  ---------------------------------------


    POTLOK:  cpu time    0.3163: real time    0.3165
    SETDIJ:  cpu time    0.0076: real time    0.0076
     EDDAV:  cpu time    1.0781: real time    1.0804
       DOS:  cpu time    0.0001: real time    0.0001
    CHARGE:  cpu time    0.0632: real time    0.0632
    MIXING:  cpu time    0.0089: real time    0.0089
    --------------------------------------------
      LOOP:  cpu time    1.4763: real time    1.4793

 eigenvalue-minimisations  :   368
 total energy-change (2. order) :-0.8356887E-03  (-0.4072969E-01)
 number of electron      98.9999931 magnetization       1.0000105
 augmentation part       63.6419654 magnetization       0.0056465

 Broyden mixing:
  rms(total) = 0.37086E-02    rms(broyden)= 0.36469E-02
  rms(prec ) = 0.38092E-02
  weight for this iteration     100.00

 Free energy of the ion-electron system (eV)
  ---------------------------------------------------
  alpha Z        PSCENC =         7.42941524
  Ewald energy   TEWEN  =     11830.70773134
  -Hartree energ DENC   =    -23213.37792563
  -exchange      EXHF   =         0.00000000
  -V(xc)+E(xc)   XCENC  =       397.54004585
  PAW double counting   =     11572.18427163   -12536.22794714
  entropy T*S    EENTRO =         0.00000000
  eigenvalues    EBANDS =      -597.88291276
  atomic energy  EATOM  =     12518.42026192
  Solvation  Ediel_sol  =         0.00000000
  ---------------------------------------------------
  free energy    TOTEN  =       -21.20705955 eV

  energy without entropy =      -21.20705955  energy(sigma->0) =      -21.20705955


--------------------------------------------------------------------------------------------------------




----------------------------------------- Iteration    2(   2)  ---------------------------------------


    POTLOK:  cpu time    0.3116: real time    0.3118
    SETDIJ:  cpu time    0.0075: real time    0.0075
    EDDIAG:  cpu time    0.1849: real time    0.1852
  RMM-DIIS:  cpu time    0.8897: real time    0.8904
    ORTHCH:  cpu time    0.0122: real time    0.0122
       DOS:  cpu time    0.0001: real time    0.0001
    CHARGE:  cpu time    0.0635: real time    0.0636
    MIXING:  cpu time    0.0086: real time    0.0086
    --------------------------------------------
      LOOP:  cpu time    1.4816: real time    1.4859

 eigenvalue-minimisations  :   304
 total energy-change (2. order) :-0.4290406E-03  (-0.4451988E-03)
 number of electron      98.9999931 magnetization       1.0000050
 augmentation part       63.6469323 magnetization       0.0055236

 Broyden mixing:
  rms(total) = 0.27699E-02    rms(broyden)= 0.27646E-02
  rms(prec ) = 0.29615E-02
  weight for this iteration     100.00

 eigenvalues of (default mixing * dielectric matrix)
  average eigenvalue GAMMA=   0.7007
  0.7007

 Free energy of the ion-electron system (eV)
  ---------------------------------------------------
  alpha Z        PSCENC =         7.42941524
  Ewald energy   TEWEN  =     11830.70773134
  -Hartree energ DENC   =    -23213.31025620
  -exchange      EXHF   =         0.00000000
  -V(xc)+E(xc)   XCENC  =       397.53756321
  PAW double counting   =     11571.93962155   -12535.95537695
  entropy T*S    EENTRO =         0.00000000
  eigenvalues    EBANDS =      -597.97644869
  atomic energy  EATOM  =     12518.42026192
  Solvation  Ediel_sol  =         0.00000000
  ---------------------------------------------------
  free energy    TOTEN  =       -21.20748859 eV

  energy without entropy =      -21.20748859  energy(sigma->0) =      -21.20748859


--------------------------------------------------------------------------------------------------------




----------------------------------------- Iteration    2(   3)  ---------------------------------------


    POTLOK:  cpu time    0.3131: real time    0.3135
    SETDIJ:  cpu time    0.0076: real time    0.0076
    EDDIAG:  cpu time    0.1847: real time    0.1851
  RMM-DIIS:  cpu time    0.9347: real time    0.9356
    ORTHCH:  cpu time    0.0119: real time    0.0119
       DOS:  cpu time    0.0001: real time    0.0001
    CHARGE:  cpu time    0.0637: real time    0.0637
    MIXING:  cpu time    0.0091: real time    0.0091
    --------------------------------------------
      LOOP:  cpu time    1.5283: real time    1.5328

 eigenvalue-minimisations  :   339
 total energy-change (2. order) :-0.5127467E-04  (-0.6278803E-04)
 number of electron      98.9999931 magnetization       1.0000050
 augmentation part       63.6469023 magnetization       0.0055432

 Broyden mixing:
  rms(total) = 0.31763E-02    rms(broyden)= 0.31734E-02
  rms(prec ) = 0.33548E-02
  weight for this iteration     100.00

 eigenvalues of (default mixing * dielectric matrix)
  average eigenvalue GAMMA=   0.5019
  0.5019  0.5019

 Free energy of the ion-electron system (eV)
  ---------------------------------------------------
  alpha Z        PSCENC =         7.42941524
  Ewald energy   TEWEN  =     11830.70773134
  -Hartree energ DENC   =    -23213.36154015
  -exchange      EXHF   =         0.00000000
  -V(xc)+E(xc)   XCENC  =       397.53983895
  PAW double counting   =     11571.85671644   -12535.88267423
  entropy T*S    EENTRO =         0.00000000
  eigenvalues    EBANDS =      -597.91728937
  atomic energy  EATOM  =     12518.42026192
  Solvation  Ediel_sol  =         0.00000000
  ---------------------------------------------------
  free energy    TOTEN  =       -21.20753986 eV

  energy without entropy =      -21.20753986  energy(sigma->0) =      -21.20753986


--------------------------------------------------------------------------------------------------------




----------------------------------------- Iteration    2(   4)  ---------------------------------------


    POTLOK:  cpu time    0.3136: real time    0.3138
    SETDIJ:  cpu time    0.0075: real time    0.0075
    EDDIAG:  cpu time    0.1934: real time    0.1937
  RMM-DIIS:  cpu time    0.7496: real time    0.7501
    ORTHCH:  cpu time    0.0128: real time    0.0128
       DOS:  cpu time    0.0001: real time    0.0001
    CHARGE:  cpu time    0.0647: real time    0.0647
    MIXING:  cpu time    0.0099: real time    0.0099
    --------------------------------------------
      LOOP:  cpu time    1.3551: real time    1.3591

 eigenvalue-minimisations  :   271
 total energy-change (2. order) :-0.1864875E-05  (-0.7641833E-05)
 number of electron      98.9999931 magnetization       1.0000008
 augmentation part       63.6455292 magnetization       0.0055628

 Broyden mixing:
  rms(total) = 0.27861E-02    rms(broyden)= 0.27858E-02
  rms(prec ) = 0.29334E-02
  weight for this iteration     100.00

 eigenvalues of (default mixing * dielectric matrix)
  average eigenvalue GAMMA=   0.8380
  1.1747  0.6697  0.6697

 Free energy of the ion-electron system (eV)
  ---------------------------------------------------
  alpha Z        PSCENC =         7.42941524
  Ewald energy   TEWEN  =     11830.70773134
  -Hartree energ DENC   =    -23213.37542257
  -exchange      EXHF   =         0.00000000
  -V(xc)+E(xc)   XCENC  =       397.54033088
  PAW double counting   =     11571.82667688   -12535.85583649
  entropy T*S    EENTRO =         0.00000000
  eigenvalues    EBANDS =      -597.90069892
  atomic energy  EATOM  =     12518.42026192
  Solvation  Ediel_sol  =         0.00000000
  ---------------------------------------------------
  free energy    TOTEN  =       -21.20754173 eV

  energy without entropy =      -21.20754173  energy(sigma->0) =      -21.20754173


--------------------------------------------------------------------------------------------------------




----------------------------------------- Iteration    2(   5)  ---------------------------------------


    POTLOK:  cpu time    0.3146: real time    0.3154
    SETDIJ:  cpu time    0.0084: real time    0.0084
    EDDIAG:  cpu time    0.1853: real time    0.1855
  RMM-DIIS:  cpu time    0.8882: real time    0.8889
    ORTHCH:  cpu time    0.0120: real time    0.0120
       DOS:  cpu time    0.0001: real time    0.0001
    CHARGE:  cpu time    0.0636: real time    0.0637
    MIXING:  cpu time    0.0103: real time    0.0103
[...]
      7      -7.0787      1.00000
      8      -7.0324      1.00000
      9      -6.9678      1.00000
     10      -6.9127      1.00000
     11      -6.8396      1.00000
     12      -6.8171      1.00000
     13      -6.7582      1.00000
     14      -6.5620      1.00000
     15      -6.4835      1.00000
     16      -6.3306      1.00000
     17      -6.3067      1.00000
     18      -6.2177      1.00000
     19      -6.1878      1.00000
     20      -6.1295      1.00000
     21      -6.1081      1.00000
     22      -6.0338      1.00000
     23      -5.9486      1.00000
     24      -5.8366      1.00000
     25      -5.7833      1.00000
     26      -5.7629      1.00000
     27      -5.7243      1.00000
     28      -5.6609      1.00000
     29      -5.6062      1.00000
     30      -5.5813      1.00000
     31      -5.5282      1.00000
     32      -5.5161      1.00000
     33      -5.5048      1.00000
     34      -5.4520      1.00000
     35      -5.4047      1.00000
     36      -5.3614      1.00000
     37      -5.3570      1.00000
     38      -5.2939      1.00000
     39      -5.2862      1.00000
     40      -5.2549      1.00000
     41      -5.2357      1.00000
     42      -5.2173      1.00000
     43      -5.1791      1.00000
     44      -5.1184      1.00000
     45      -5.1003      1.00000
     46      -5.0735      1.00000
     47      -5.0300      1.00000
     48      -4.9818      1.00000
     49      -4.6444      1.00000
     50      -3.2690      0.00000
     51      -3.1446      0.00000
     52      -2.8055      0.00000
     53      -2.7539      0.00000
     54      -2.4316      0.00000
     55      -1.9586      0.00000
     56      -1.0462      0.00000
     57      -0.8017      0.00000
     58      -0.6432      0.00000
     59      -0.4884      0.00000
     60      -0.2514      0.00000
     61      -0.0751      0.00000
     62       0.0496      0.00000
     63       0.0831      0.00000
     64       0.3559      0.00000
     65       0.3678      0.00000
     66       0.3914      0.00000
     67       0.4569      0.00000
     68       0.5075      0.00000
     69       0.5291      0.00000
     70       0.5777      0.00000
     71       0.6014      0.00000
     72       0.6831      0.00000
     73       0.7166      0.00000
     74       0.7252      0.00000
     75       0.7518      0.00000
     76       0.7606      0.00000


--------------------------------------------------------------------------------------------------------


 soft charge-density along one line, spin component           1
         0         1         2         3         4         5         6         7         8         9
 total charge-density along one line
 
 soft charge-density along one line, spin component           2
         0         1         2         3         4         5         6         7         8         9
 total charge-density along one line
 
 pseudopotential strength for first ion, spin component:           1
-10.686  -0.004   0.006   0.006   0.001   1.137   0.003  -0.005
 -0.004 -10.711  -0.001  -0.006  -0.007   0.003   1.154   0.001
  0.006  -0.001 -10.703   0.001  -0.008  -0.005   0.001   1.149
  0.006  -0.006   0.001 -10.697  -0.011  -0.004   0.005  -0.000
  0.001  -0.007  -0.008  -0.011 -10.688  -0.000   0.005   0.005
  1.137   0.003  -0.005  -0.004  -0.000   6.217  -0.002   0.003
  0.003   1.154   0.001   0.005   0.005  -0.002   6.207  -0.001
 -0.005   0.001   1.149  -0.000   0.005   0.003  -0.001   6.212
 -0.004   0.005  -0.000   1.144   0.008   0.002  -0.003   0.000
 -0.000   0.005   0.005   0.008   1.139   0.000  -0.003  -0.004
  0.002  -0.001   0.001   0.002  -0.001  -0.000  -0.001   0.002
  0.003  -0.002   0.001   0.003  -0.001  -0.000  -0.003   0.005
  0.002   0.023   0.003  -0.000   0.005  -0.001  -0.013  -0.001
 -0.000  -0.006   0.028   0.002   0.000   0.000   0.004  -0.017
 -0.006  -0.000  -0.000   0.023   0.001   0.003   0.000  -0.000
  0.001   0.024   0.003  -0.000   0.006  -0.001  -0.012  -0.001
 -0.000  -0.007   0.030   0.002   0.000   0.000   0.004  -0.015
 -0.006  -0.000   0.000   0.024  -0.000   0.003   0.000  -0.001
 pseudopotential strength for first ion, spin component:           2
-10.680  -0.005   0.006   0.005  -0.003   1.132   0.003  -0.004
 -0.005 -10.705  -0.001  -0.005  -0.005   0.003   1.149   0.001
  0.006  -0.001 -10.696   0.004  -0.003  -0.004   0.001   1.143
  0.005  -0.005   0.004 -10.687  -0.003  -0.003   0.004  -0.003
 -0.003  -0.005  -0.003  -0.003 -10.664   0.002   0.003   0.002
  1.132   0.003  -0.004  -0.003   0.002   6.221  -0.002   0.003
  0.003   1.149   0.001   0.004   0.003  -0.002   6.211  -0.001
 -0.004   0.001   1.143  -0.003   0.002   0.003  -0.001   6.216
 -0.003   0.004  -0.003   1.136   0.002   0.001  -0.003   0.002
  0.002   0.003   0.002   0.002   1.120  -0.001  -0.001  -0.002
  0.002  -0.001   0.002   0.000  -0.001  -0.000  -0.001   0.002
  0.003  -0.001   0.003   0.000  -0.001  -0.001  -0.003   0.005
  0.001   0.023   0.004  -0.000   0.007  -0.000  -0.013  -0.002
 -0.000  -0.007   0.028   0.003   0.000  -0.000   0.005  -0.017
 -0.006  -0.000  -0.001   0.024   0.002   0.004  -0.000   0.000
  0.001   0.025   0.004  -0.000   0.008   0.000  -0.012  -0.002
 -0.000  -0.008   0.030   0.003   0.001  -0.000   0.005  -0.015
 -0.007  -0.000  -0.000   0.026   0.003   0.004  -0.000  -0.000
 total augmentation occupancy for first ion, spin component:           1
  1.955  -0.003   0.001  -0.000  -0.001  -0.009   0.000  -0.002  -0.003   0.001   0.002  -0.002  -0.013  -0.003   0.017   0.004
 -0.003   1.952  -0.003  -0.002  -0.000   0.000  -0.005   0.003   0.002   0.003   0.005   0.000  -0.093   0.006  -0.006   0.039
  0.001  -0.003   1.959   0.006   0.003  -0.002   0.003  -0.014  -0.004  -0.001  -0.003   0.003  -0.018  -0.063   0.021   0.006
 -0.000  -0.002   0.006   1.960  -0.004  -0.003   0.002  -0.004  -0.008   0.003   0.007  -0.000  -0.004   0.003  -0.081   0.000
 -0.001  -0.000   0.003  -0.004   1.954   0.001   0.003  -0.001   0.003  -0.021  -0.012  -0.003  -0.017   0.000  -0.016   0.010
 -0.009   0.000  -0.002  -0.003   0.001   0.005   0.001   0.000  -0.001  -0.000   0.009  -0.000  -0.004  -0.001   0.005   0.000
  0.000  -0.005   0.003   0.002   0.003   0.001   0.010   0.001   0.001   0.001  -0.013   0.002  -0.024   0.003  -0.002   0.001
 -0.002   0.003  -0.014  -0.004  -0.001   0.000   0.001   0.008  -0.001   0.000   0.019  -0.004  -0.004  -0.020   0.003   0.000
 -0.003   0.002  -0.004  -0.008   0.003  -0.001   0.001  -0.001   0.011   0.001   0.003  -0.002  -0.002  -0.002  -0.028   0.000
  0.001   0.003  -0.001   0.003  -0.021  -0.000   0.001   0.000   0.001   0.005   0.004   0.000  -0.006  -0.000  -0.006   0.000
  0.002   0.005  -0.003   0.007  -0.012   0.009  -0.013   0.019   0.003   0.004   1.631  -0.099   0.060  -0.277  -0.039  -0.007
 -0.002   0.000   0.003  -0.000  -0.003  -0.000   0.002  -0.004  -0.002   0.000  -0.099   0.010  -0.006   0.028   0.006   0.001
 -0.013  -0.093  -0.018  -0.004  -0.017  -0.004  -0.024  -0.004  -0.002  -0.006   0.060  -0.006   0.080  -0.005   0.007  -0.006
 -0.003   0.006  -0.063   0.003   0.000  -0.001   0.003  -0.020  -0.002  -0.000  -0.277   0.028  -0.005   0.097   0.007   0.001
  0.017  -0.006   0.021  -0.081  -0.016   0.005  -0.002   0.003  -0.028  -0.006  -0.039   0.006   0.007   0.007   0.096  -0.000
  0.004   0.039   0.006   0.000   0.010   0.000   0.001   0.000   0.000   0.000  -0.007   0.001  -0.006   0.001  -0.000   0.001
  0.000  -0.007   0.040   0.004   0.000   0.000  -0.000   0.001   0.000   0.000   0.034  -0.003   0.001  -0.010  -0.001  -0.000
 -0.008   0.000  -0.003   0.039   0.005  -0.000   0.000  -0.000   0.001   0.000   0.005  -0.001  -0.000  -0.001  -0.006  -0.000
 total augmentation occupancy for first ion, spin component:           2
 -0.000  -0.000  -0.000  -0.001  -0.002   0.000   0.000  -0.000   0.000   0.001   0.001  -0.000  -0.001   0.000  -0.002  -0.000
 -0.000  -0.001   0.000   0.001   0.001   0.000   0.000  -0.000   0.000  -0.000  -0.001  -0.000   0.000  -0.000   0.001   0.000
 -0.000   0.000  -0.000   0.001   0.003  -0.000  -0.000  -0.000  -0.001  -0.001  -0.002  -0.001   0.002  -0.000   0.003   0.000
 -0.001   0.001   0.001   0.001   0.004   0.000   0.000  -0.000  -0.001  -0.001  -0.003  -0.000   0.003   0.000   0.003   0.000
 -0.002   0.001   0.003   0.004   0.009   0.001  -0.000  -0.001  -0.001  -0.003  -0.005  -0.001   0.007   0.002   0.009   0.001
  0.000   0.000  -0.000   0.000   0.001   0.000  -0.000  -0.000  -0.000  -0.000   0.001  -0.000   0.000   0.000   0.000  -0.000
  0.000   0.000  -0.000   0.000  -0.000  -0.000  -0.000   0.000   0.000   0.000   0.000   0.000  -0.000  -0.000  -0.000  -0.000
 -0.000  -0.000  -0.000  -0.000  -0.001  -0.000   0.000   0.000   0.000   0.000   0.000   0.000  -0.001  -0.000  -0.001  -0.000
  0.000   0.000  -0.001  -0.001  -0.001  -0.000   0.000   0.000   0.000   0.000   0.001   0.000  -0.001  -0.000  -0.001  -0.000
  0.001  -0.000  -0.001  -0.001  -0.003  -0.000   0.000   0.000   0.000   0.001   0.002   0.000  -0.002  -0.001  -0.003  -0.000
  0.001  -0.001  -0.002  -0.003  -0.005   0.001   0.000   0.000   0.001   0.002  -0.003  -0.000  -0.004  -0.002  -0.006  -0.000
 -0.000  -0.000  -0.001  -0.000  -0.001  -0.000   0.000   0.000   0.000   0.000  -0.000   0.000  -0.000  -0.000  -0.000  -0.000
 -0.001   0.000   0.002   0.003   0.007   0.000  -0.000  -0.001  -0.001  -0.002  -0.004  -0.000   0.003   0.001   0.006   0.000
  0.000  -0.000  -0.000   0.000   0.002   0.000  -0.000  -0.000  -0.000  -0.001  -0.002  -0.000   0.001   0.000   0.002   0.000
 -0.002   0.001   0.003   0.003   0.009   0.000  -0.000  -0.001  -0.001  -0.003  -0.006  -0.000   0.006   0.002   0.008   0.000
 -0.000   0.000   0.000   0.000   0.001  -0.000  -0.000  -0.000  -0.000  -0.000  -0.000  -0.000   0.000   0.000   0.000   0.000
  0.000  -0.000  -0.000   0.000   0.000   0.000   0.000  -0.000   0.000   0.000  -0.000  -0.000  -0.000  -0.000  -0.000   0.000
 -0.000   0.000   0.000   0.000   0.000   0.000   0.000  -0.000   0.000  -0.000   0.000  -0.000   0.000  -0.000  -0.000   0.000


------------------------ aborting loop because EDIFF is reached ----------------------------------------


 


 total charge     
 
# of ion     s       p       d       tot
----------------------------------------
  1        0.462   0.142   9.295   9.899
  2        0.447   0.209   9.264   9.921
  3        0.439   0.210   9.275   9.924
  4        0.449   0.221   9.257   9.927
  5        0.465   0.137   9.293   9.894
  6        0.456   0.151   9.285   9.892
  7        0.493   0.102   9.282   9.877
  8        0.440   0.242   9.252   9.935
  9        0.446   0.249   9.247   9.942
------------------------------------------------
tot        4.097   1.664  83.449  89.210
 


 magnetization (x)
 
# of ion     s       p       d       tot
----------------------------------------
  1       -0.001   0.007   0.012   0.018
  2       -0.001   0.023   0.000   0.022
  3        0.006   0.016  -0.004   0.019
  4        0.035   0.017   0.006   0.058
  5        0.035   0.003   0.006   0.044
  6        0.023   0.023   0.016   0.062
  7        0.089   0.008   0.001   0.099
  8       -0.002   0.003   0.027   0.028
  9        0.015   0.001   0.033   0.049
------------------------------------------------
tot        0.200   0.101   0.097   0.397
 
    CHARGE:  cpu time    0.0638: real time    0.0639
    FORLOC:  cpu time    0.0119: real time    0.0119
    FORNL :  cpu time    0.4730: real time    0.4735
    STRESS:  cpu time    0.4601: real time    0.4601
    FORCOR:  cpu time    0.3153: real time    0.3156
    FORHAR:  cpu time    0.0410: real time    0.0411
    MIXING:  cpu time    0.0133: real time    0.0133
    OFIELD:  cpu time    0.0001: real time    0.0001

  FORCE on cell =-STRESS in cart. coord.  units (eV):
  Direction    XX          YY          ZZ          XY          YZ          ZX
  --------------------------------------------------------------------------------------
  Alpha Z     7.42942     7.42942     7.42942
  Ewald    2749.72568  5057.18332  4103.02766   853.08728    11.72099  -478.35919
  Hartree  6710.47729  8732.88267  7846.05749   741.02537    28.99012  -394.86816
  E(xc)    -577.83981  -577.21577  -577.41564     0.20118     0.02278    -0.15501
  Local  -10332.25143-14656.15297-12812.71471 -1591.23426   -43.41298   870.13981
  n-local  -220.65158  -219.64839  -220.84659     0.02781     0.56202     0.18403
  augment   845.14857   841.27414   840.96736    -1.48582     0.85336     1.40330
  Kinetic   816.11095   812.39347   811.43797    -1.58250     1.35868     1.70495
  Fock        0.00000     0.00000     0.00000     0.00000     0.00000     0.00000
  -------------------------------------------------------------------------------------
  Total      -1.85093    -1.85412    -2.05706     0.03904     0.09498     0.04971
  in kB      -0.37193    -0.37257    -0.41335     0.00784     0.01909     0.00999
  external pressure =       -0.39 kB  Pullay stress =        0.00 kB


 VOLUME and BASIS-vectors are now :
 -----------------------------------------------------------------------------
  energy-cutoff  :      295.45
  volume of cell :     7973.38
      direct lattice vectors                 reciprocal lattice vectors
    19.977794279  0.000000000  0.000000000     0.050055576  0.000000000  0.000000000
     0.000000000 19.977794279  0.000000000     0.000000000  0.050055576  0.000000000
     0.000000000  0.000000000 19.977794279     0.000000000  0.000000000  0.050055576

  length of vectors
    19.977794279 19.977794279 19.977794279     0.050055576  0.050055576  0.050055576


 FORCES acting on ions
    electron-ion (+dipol)            ewald-force                    non-local-force                 convergence-correction
 -----------------------------------------------------------------------------------------------
   -.178E+03 0.202E+03 -.117E+04   0.176E+03 -.199E+03 0.116E+04   0.119E+01 -.223E+01 0.106E+02   0.187E-02 -.384E-01 -.746E-02
   0.808E+03 -.685E+03 -.528E+03   -.804E+03 0.681E+03 0.524E+03   -.384E+01 0.419E+01 0.389E+01   -.348E-01 0.107E-01 0.218E-01
   0.891E+03 0.620E+03 -.452E+03   -.885E+03 -.615E+03 0.448E+03   -.580E+01 -.525E+01 0.375E+01   0.151E-01 0.407E-02 0.234E-02
   -.857E+03 -.629E+03 -.495E+03   0.853E+03 0.626E+03 0.494E+03   0.390E+01 0.276E+01 0.153E+01   0.141E-02 -.366E-02 0.217E-01
   -.842E+03 -.117E+03 0.844E+03   0.836E+03 0.116E+03 -.836E+03   0.693E+01 0.143E+01 -.757E+01   -.137E-02 0.210E-01 -.406E-01
   0.118E+03 -.109E+04 0.467E+03   -.118E+03 0.109E+04 -.461E+03   -.116E+00 0.840E+01 -.618E+01   -.164E-01 0.214E-01 0.157E-01
   0.221E+03 0.967E+03 0.547E+03   -.220E+03 -.960E+03 -.540E+03   -.499E+00 -.708E+01 -.677E+01   0.101E-02 -.749E-02 0.131E-01
   -.779E+03 0.782E+03 -.939E+02   0.777E+03 -.778E+03 0.928E+02   0.227E+01 -.371E+01 0.109E+01   0.226E-01 -.799E-02 -.292E-01
   0.616E+03 -.441E+02 0.890E+03   -.614E+03 0.443E+02 -.887E+03   -.222E+01 -.224E+00 -.353E+01   -.584E-02 0.121E-01 0.714E-02
 -----------------------------------------------------------------------------------------------
   -.179E+01 0.179E+01 0.313E+01   0.000E+00 -.227E-12 0.114E-12   0.181E+01 -.172E+01 -.320E+01   -.164E-01 0.117E-01 0.445E-02
 
 
 POSITION                                       TOTAL-FORCE (eV/Angst)
 -----------------------------------------------------------------------------------
     10.22906      9.67610     12.28160        -0.007518      0.022742     -0.001111
      8.84943     11.14972     10.91235        -0.007175      0.000331     -0.014299
      8.56048      8.76554     10.73785        -0.015363      0.006689      0.001770
     11.28252     11.16619     10.73128         0.006077     -0.000174      0.007728
     11.56053     10.47618      8.42752         0.005324      0.000234     -0.003887
      9.93602     12.29855      9.10974         0.012575     -0.009347      0.000626
      9.31336      7.54027      8.83376         0.004159     -0.001602      0.005946
     10.93861      8.83039     10.09482         0.001803     -0.011790      0.000617
      9.23007      9.99714      8.77115         0.000118     -0.007082      0.002609
 -----------------------------------------------------------------------------------
    total drift:                                0.008200      0.086733     -0.071674


--------------------------------------------------------------------------------------------------------



  FREE ENERGIE OF THE ION-ELECTRON SYSTEM (eV)
  ---------------------------------------------------
  free  energy   TOTEN  =       -21.26763007 eV

  energy  without entropy=      -21.26763007  energy(sigma->0) =      -21.26763007
 
 d Force = 0.4612058E-03[ 0.205E-03, 0.717E-03]  d Energy = 0.4732310E-03-0.120E-04
 d Force =-0.3150468E+01[-0.313E+01,-0.317E+01]  d Ewald  =-0.3150485E+01 0.169E-04


--------------------------------------------------------------------------------------------------------


    POTLOK:  cpu time    0.3276: real time    0.3277


--------------------------------------------------------------------------------------------------------


 Conjugate gradient step on ions:
 trial-energy change:   -0.000473  1 .order   -0.000461   -0.000717   -0.000205
  (g-gl).g = 0.272E-03      g.g   = 0.274E-03  gl.gl    = 0.418E-03
 g(Force)  = 0.274E-03   g(Stress)= 0.000E+00 ortho     =-0.767E-05
 gamma     =   0.65014
 trial     =   2.66489
 opt step  =   3.56394  (harmonic =   3.73341) maximal distance =0.00845458
 next E    =   -21.267665   (d E  =  -0.00051)


--------------------------------------------------------------------------------------------------------


  
 reached required accuracy - stopping structural energy minimisation
     LOOP+:  cpu time   16.5787: real time   16.6658
    4ORBIT:  cpu time    0.0000: real time    0.0000
 


 total charge     
 
# of ion     s       p       d       tot
----------------------------------------
  1        0.462   0.142   9.295   9.899
  2        0.447   0.209   9.264   9.921
  3        0.439   0.210   9.275   9.924
  4        0.449   0.221   9.257   9.927
  5        0.465   0.137   9.293   9.894
  6        0.456   0.151   9.285   9.892
  7        0.493   0.102   9.282   9.877
  8        0.440   0.242   9.252   9.935
  9        0.446   0.249   9.247   9.942
------------------------------------------------
tot        4.097   1.664  83.449  89.210
 


 magnetization (x)
 
# of ion     s       p       d       tot
----------------------------------------
  1       -0.001   0.007   0.012   0.018
  2       -0.001   0.023   0.000   0.022
  3        0.006   0.016  -0.004   0.019
  4        0.035   0.017   0.006   0.058
  5        0.035   0.003   0.006   0.044
  6        0.023   0.023   0.016   0.062
  7        0.089   0.008   0.001   0.099
  8       -0.002   0.003   0.027   0.028
  9        0.015   0.001   0.033   0.049
------------------------------------------------
tot        0.200   0.101   0.097   0.397
 

 total amount of memory used by VASP on root node    68070. kBytes
========================================================================

   base      :      30000. kBytes
   nonl-proj :       2209. kBytes
   fftplans  :       8859. kBytes
   grid      :      22296. kBytes
   one-center:         31. kBytes
   wavefun   :       4675. kBytes
 
  
  
 General timing and accounting informations for this job:
 ========================================================
  
                  Total CPU time used (sec):      763.485
                            User time (sec):      731.738
                          System time (sec):       31.748
                         Elapsed time (sec):      775.336
  
                   Maximum memory used (kb):      126668.
                   Average memory used (kb):           0.
  
                          Minor page faults:      4399995
                          Major page faults:            0
                 Voluntary context switches:         9494
