 vasp.5.4.1 05Feb16 (build Apr 11 2020 03:28:46) gamma-only                     
  
 executed on           IFC91_ompi date 2022.05.26  01:50:17
 running on   24 total cores
 distrk:  each k-point on   24 cores,    1 groups
 distr:  one band on NCORES_PER_BAND=   6 cores,    4 groups


--------------------------------------------------------------------------------------------------------


 INCAR:
 POTCAR:    PAW_PBE Cu 22Jun2005                  
 POTCAR:    PAW_PBE Cu 22Jun2005                  
   VRHFIN =Cu: d10 p1                                                           
   LEXCH  = PE                                                                  
   EATOM  =  1390.9808 eV,  102.2342 Ry                                         
                                                                                
   TITEL  = PAW_PBE Cu 22Jun2005                                                
   LULTRA =        F    use ultrasoft PP ?                                      
   IUNSCR =        1    unscreen: 0-lin 1-nonlin 2-no                           
   RPACOR =    2.000    partial core radius                                     
   POMASS =   63.546; ZVAL   =   11.000    mass and valenz                      
   RCORE  =    2.300    outmost cutoff radius                                   
   RWIGS  =    2.200; RWIGS  =    1.164    wigner-seitz radius (au A)           
   ENMAX  =  295.446; ENMIN  =  221.585 eV                                      
   ICORE  =        3    local potential                                         
   LCOR   =        T    correct aug charges                                     
   LPAW   =        T    paw PP                                                  
   EAUG   =  586.980                                                            
   DEXC   =    0.000                                                            
   RMAX   =    2.344    core radius for proj-oper                               
   RAUG   =    1.300    factor for augmentation sphere                          
   RDEP   =    2.302    radius for radial grids                                 
   RDEPT  =    1.771    core radius for aug-charge                              
                                                                                
   Atomic configuration                                                         
    9 entries                                                                   
     n  l   j            E        occ.                                          
     1  0  0.50     -8850.2468   2.0000                                         
     2  0  0.50     -1062.3498   2.0000                                         
     2  1  1.50      -916.8226   6.0000                                         
     3  0  0.50      -114.6929   2.0000                                         
     3  1  1.50       -72.1325   6.0000                                         
     3  2  2.50        -5.0394  10.0000                                         
     4  0  0.50        -4.6097   1.0000                                         
     4  1  0.50        -4.0817   0.0000                                         
     4  3  2.50        -1.3606   0.0000                                         
   Description                                                                  
     l       E           TYP  RCUT    TYP  RCUT                                 
     2     -5.0393973     23  2.200                                             
     2     10.8846608     23  2.200                                             
     0     -4.6097109     23  2.200                                             
     0      8.2520465     23  2.200                                             
     1     -2.7211652     23  2.200                                             
     1     21.7055443     23  2.200                                             
     3      2.7211652     23  2.300                                             
  local pseudopotential read in
  partial core-charges read in
  partial kinetic energy density read in
  atomic valenz-charges read in
  non local Contribution for L=           2  read in
    real space projection operators read in
  non local Contribution for L=           2  read in
    real space projection operators read in
  non local Contribution for L=           0  read in
    real space projection operators read in
  non local Contribution for L=           0  read in
    real space projection operators read in
  non local Contribution for L=           1  read in
    real space projection operators read in
  non local Contribution for L=           1  read in
    real space projection operators read in
    PAW grid and wavefunctions read in
 
   number of l-projection  operators is LMAX  =           6
   number of lm-projection operators is LMMAX =          18
 
  PAW_PBE Cu 22Jun2005                  :
 energy of atom  1       EATOM=-1390.9808
 kinetic energy error for atom=    0.0452 (will be added to EATOM!!)
 
 
 POSCAR: unknown system                          
  positions in direct lattice
  velocities in cartesian coordinates
 exchange correlation table for  LEXCH =        8
   RHO(1)=    0.500       N(1)  =     2000
   RHO(2)=  100.500       N(2)  =     4000
 


--------------------------------------------------------------------------------------------------------


 ion  position               nearest neighbor table
   1  0.471  0.535  0.336-   2 2.36   7 2.37
   2  0.518  0.464  0.427-   1 2.36   3 2.42   7 2.43   4 2.45   5 2.45   6 2.50
   3  0.625  0.438  0.491-   6 2.35   2 2.42   4 2.44
   4  0.512  0.399  0.538-   5 2.40   9 2.42   3 2.44   2 2.45   6 2.46
   5  0.423  0.485  0.512-   4 2.40   9 2.42   7 2.44   2 2.45   8 2.48   6 2.58
   6  0.550  0.523  0.540-   8 2.35   3 2.35   9 2.46   4 2.46   7 2.48   2 2.50   5 2.58
   7  0.478  0.584  0.450-   1 2.37   8 2.42   2 2.43   5 2.44   6 2.48
   8  0.455  0.595  0.575-   6 2.35   7 2.42   5 2.48   9 2.48
   9  0.469  0.477  0.630-   4 2.42   5 2.42   6 2.46   8 2.48
 
  LATTYP: Found a simple cubic cell.
 ALAT       =    18.9764990000
  
  Lattice vectors:
  
 A1 = (  18.9764990000,   0.0000000000,   0.0000000000)
 A2 = (   0.0000000000,  18.9764990000,   0.0000000000)
 A3 = (   0.0000000000,   0.0000000000,  18.9764990000)


Analysis of symmetry for initial positions (statically):
=====================================================================
 Subroutine PRICEL returns:
 Original cell was already a primitive cell.
 

 Routine SETGRP: Setting up the symmetry group for a 
 simple cubic supercell.


 Subroutine GETGRP returns: Found  1 space group operations
 (whereof  1 operations were pure point group operations)
 out of a pool of 48 trial point group operations.


The static configuration has the point symmetry C_1 .


Analysis of symmetry for dynamics (positions and initial velocities):
=====================================================================
 Subroutine PRICEL returns:
 Original cell was already a primitive cell.
 

 Routine SETGRP: Setting up the symmetry group for a 
 simple cubic supercell.


 Subroutine GETGRP returns: Found  1 space group operations
 (whereof  1 operations were pure point group operations)
 out of a pool of 48 trial point group operations.


The dynamic configuration has the point symmetry C_1 .


Analysis of structural, dynamic, and magnetic symmetry:
=====================================================================
 Subroutine PRICEL returns:
 Original cell was already a primitive cell.
 

 Routine SETGRP: Setting up the symmetry group for a 
 simple cubic supercell.


 Subroutine GETGRP returns: Found  1 space group operations
 (whereof  1 operations were pure point group operations)
 out of a pool of 48 trial point group operations.


The magnetic configuration has the point symmetry C_1 .


 Subroutine INISYM returns: Found  1 space group operations
 (whereof  1 operations are pure point group operations),
 and found     1 'primitive' translations

 
 
 KPOINTS: Gamma-point only                        
  k-points in reciprocal lattice
Space group operators:
 irot       det(A)        alpha          n_x          n_y          n_z        tau_x        tau_y        tau_z
    1     1.000000     0.000000     1.000000     0.000000     0.000000     0.000000     0.000000     0.000000


--------------------------------------------------------------------------------------------------------




 Dimension of arrays:
   k-points           NKPTS =      1   k-points in BZ     NKDIM =      1   number of bands    NBANDS=     76
   number of dos      NEDOS =    301   number of ions     NIONS =      9
   non local maximal  LDIM  =      6   non local SUM 2l+1 LMDIM =     18
   total plane-waves  NPLWV = 512000
   max r-space proj   IRMAX =      1   max aug-charges    IRDMAX=   2369
   dimension x,y,z NGX =    80 NGY =   80 NGZ =   80
   dimension x,y,z NGXF=   160 NGYF=  160 NGZF=  160
   support grid    NGXF=   160 NGYF=  160 NGZF=  160
   ions per type =               9
 NGX,Y,Z   is equivalent  to a cutoff of   7.01,  7.01,  7.01 a.u.
 NGXF,Y,Z  is equivalent  to a cutoff of  14.02, 14.02, 14.02 a.u.


 I would recommend the setting:
   dimension x,y,z NGX =    80 NGY =   80 NGZ =   80
 SYSTEM =  unknown system                          
 POSCAR =  unknown system                          

 Startparameter for this run:
   NWRITE =      2    write-flag & timer
   PREC   = normal    normal or accurate (medium, high low for compatibility)
   ISTART =      0    job   : 0-new  1-cont  2-samecut
   ICHARG =      2    charge: 1-file 2-atom 10-const
   ISPIN  =      2    spin polarized calculation?
   LNONCOLLINEAR =      F non collinear calculations
   LSORBIT =      F    spin-orbit coupling
   INIWAV =      1    electr: 0-lowe 1-rand  2-diag
   LASPH  =      F    aspherical Exc in radial PAW
   METAGGA=      F    non-selfconsistent MetaGGA calc.

 Electronic Relaxation 1
   ENCUT  =  295.4 eV  21.71 Ry    4.66 a.u.  26.60 26.60 26.60*2*pi/ulx,y,z
   ENINI  =  295.4     initial cutoff
   ENAUG  =  587.0 eV  augmentation charge cutoff
   NELM   =     60;   NELMIN=  2; NELMDL=  0     # of ELM steps 
   EDIFF  = 0.1E-05   stopping-criterion for ELM
   LREAL  =      F    real-space projection
   NLSPLINE    = F    spline interpolate recip. space projectors
   LCOMPAT=      F    compatible to vasp.4.4
   GGA_COMPAT  = T    GGA compatible to vasp.4.4-vasp.4.6
   LMAXPAW     = -100 max onsite density
   LMAXMIX     =    2 max onsite mixed and CHGCAR
   VOSKOWN=      0    Vosko Wilk Nusair interpolation
   ROPT   =    0.00000
 Ionic relaxation
   EDIFFG = -.3E-01   stopping-criterion for IOM
   NSW    =   1000    number of steps for IOM
   NBLOCK =      1;   KBLOCK =   1000    inner block; outer block 
   IBRION =      2    ionic relax: 0-MD 1-quasi-New 2-CG
   NFREE  =      1    steps in history (QN), initial steepest desc. (CG)
   ISIF   =      2    stress and relaxation
   IWAVPR =     11    prediction:  0-non 1-charg 2-wave 3-comb
   ISYM   =      2    0-nonsym 1-usesym 2-fastsym
   LCORR  =      T    Harris-Foulkes like correction to forces

   POTIM  = 0.5000    time-step for ionic-motion
   TEIN   =    0.0    initial temperature
   TEBEG  =    0.0;   TEEND  =   0.0 temperature during run
   SMASS  =  -3.00    Nose mass-parameter (am)
   estimated Nose-frequenzy (Omega)   =  0.10E-29 period in steps =****** mass=  -0.823E-26a.u.
   SCALEE = 1.0000    scale energy and forces
   NPACO  =    256;   APACO  = 16.0  distance and # of slots for P.C.
   PSTRESS=    0.0 pullay stress

  Mass of Ions in am
   POMASS =  63.55
  Ionic Valenz
   ZVAL   =  11.00
  Atomic Wigner-Seitz radii
   RWIGS  =  -1.00
  virtual crystal weights 
   VCA    =   1.00
   NELECT =      99.0000    total number of electrons
   NUPDOWN=      -1.0000    fix difference up-down

 DOS related values:
   EMIN   =  10.00;   EMAX   =-10.00  energy-range for DOS
   EFERMI =   0.00
   ISMEAR =     0;   SIGMA  =   0.00  broadening in eV -4-tet -1-fermi 0-gaus

 Electronic relaxation 2 (details)
   IALGO  =     38    algorithm
   LDIAG  =      T    sub-space diagonalisation (order eigenvalues)
   LSUBROT=      F    optimize rotation matrix (better conditioning)
   TURBO    =      0    0=normal 1=particle mesh
   IRESTART =      0    0=no restart 2=restart with 2 vectors
   NREBOOT  =      0    no. of reboots
   NMIN     =      0    reboot dimension
   EREF     =   0.00    reference energy to select bands
   IMIX   =      4    mixing-type and parameters
     AMIX     =   0.40;   BMIX     =  1.00
     AMIX_MAG =   1.60;   BMIX_MAG =  1.00
     AMIN     =   0.10
     WC   =   100.;   INIMIX=   1;  MIXPRE=   1;  MAXMIX= -45

 Intra band minimization:
   WEIMIN = 0.0010     energy-eigenvalue tresh-hold
   EBREAK =  0.33E-08  absolut break condition
   DEPER  =   0.30     relativ break condition  

   TIME   =   0.40     timestep for ELM

  volume/ion in A,a.u.               =     759.29      5123.92
  Fermi-wavevector in a.u.,A,eV,Ry     =   0.399090  0.754170  2.167035  0.159273
  Thomas-Fermi vector in A             =   1.347067
 
 Write flags
   LWAVE  =      F    write WAVECAR
   LCHARG =      F    write CHGCAR
   LVTOT  =      F    write LOCPOT, total local potential
   LVHAR  =      F    write LOCPOT, Hartree potential only
   LELF   =      F    write electronic localiz. function (ELF)
   LORBIT =     11    0 simple, 1 ext, 2 COOP (PROOUT)


 Dipole corrections
   LMONO  =      F    monopole corrections only (constant potential shift)
   LDIPOL =      F    correct potential (dipole corrections)
   IDIPOL =      0    1-x, 2-y, 3-z, 4-all directions 
   EPSILON=  1.0000000 bulk dielectric constant

 Exchange correlation treatment:
   GGA     =    PE    GGA type
   LEXCH   =     8    internal setting for exchange type
   VOSKOWN=      0    Vosko Wilk Nusair interpolation
   LHFCALC =     F    Hartree Fock is set to
   LHFONE  =     F    Hartree Fock one center treatment
   AEXX    =    0.0000 exact exchange contribution

 Linear response parameters
   LEPSILON=     F    determine dielectric tensor
   LRPA    =     F    only Hartree local field effects (RPA)
   LNABLA  =     F    use nabla operator in PAW spheres
   LVEL    =     F    velocity operator in full k-point grid
   LINTERFAST=   F  fast interpolation
   KINTER  =     0    interpolate to denser k-point grid
   CSHIFT  =0.1000    complex shift for real part using Kramers Kronig
   OMEGAMAX=  -1.0    maximum frequency
   DEG_THRESHOLD= 0.2000000E-02 threshold for treating states as degnerate
   RTIME   =    0.100 relaxation time in fs

 Orbital magnetization related:
   ORBITALMAG=     F  switch on orbital magnetization
   LCHIMAG   =     F  perturbation theory with respect to B field
   DQ        =  0.001000  dq finite difference perturbation B field



--------------------------------------------------------------------------------------------------------


 conjugate gradient relaxation of ions
 charge density and potential will be updated during run
 spin polarized calculation
 Variant of blocked Davidson
 Davidson routine will perform the subspace rotation
 perform sub-space diagonalisation
    after iterative eigenvector-optimisation
 modified Broyden-mixing scheme, WC =      100.0
 initial mixing is a Kerker type mixing with AMIX =  0.4000 and BMIX =      1.0000
 Hartree-type preconditioning will be used
 using additional bands           26
 reciprocal scheme for non local part
 use partial core corrections
 calculate Harris-corrections to forces 
   (improved forces if not selfconsistent)
 use gradient corrections 
 use of overlap-Matrix (Vanderbilt PP)
 Gauss-broadening in eV      SIGMA  =   0.00


--------------------------------------------------------------------------------------------------------


  energy-cutoff  :      295.45
  volume of cell :     6833.58
      direct lattice vectors                 reciprocal lattice vectors
    18.976499000  0.000000000  0.000000000     0.052696759  0.000000000  0.000000000
     0.000000000 18.976499000  0.000000000     0.000000000  0.052696759  0.000000000
     0.000000000  0.000000000 18.976499000     0.000000000  0.000000000  0.052696759

  length of vectors
    18.976499000 18.976499000 18.976499000     0.052696759  0.052696759  0.052696759


 
 k-points in units of 2pi/SCALE and weight: Gamma-point only                        
   0.00000000  0.00000000  0.00000000       1.000
 
 k-points in reciprocal lattice and weights: Gamma-point only                        
   0.00000000  0.00000000  0.00000000       1.000
 
 position of ions in fractional coordinates (direct lattice) 
   0.47103367  0.53500155  0.33585180
   0.51754267  0.46445354  0.42695169
   0.62481579  0.43751467  0.49090657
   0.51153575  0.39920959  0.53807908
   0.42251991  0.48540236  0.51176671
   0.55008237  0.52312390  0.54039680
   0.47794200  0.58418325  0.45038252
   0.45544985  0.59457339  0.57548430
   0.46907799  0.47653775  0.63018051
 
 position of ions in cartesian coordinates  (Angst):
   8.93856997 10.15245638  6.37329135
   9.82114796  8.81370214  8.10204832
  11.85681621  8.30249670  9.31568803
   9.70715765  7.57560039 10.21085712
   8.01794865  9.21123740  9.71154046
  10.43863754  9.92706017 10.25483933
   9.06966589 11.08575286  8.54668344
   8.64284362 11.28292134 10.92067724
   8.90145801  9.04301814 11.95861982
 


--------------------------------------------------------------------------------------------------------


 use parallel FFT for wavefunctions z direction half grid
 k-point  1 :   0.0000 0.0000 0.0000  plane waves:   39475

 maximum and minimum number of plane-waves per node :      6581     6577

 maximum number of plane-waves:     39475
 maximum index in each direction: 
   IXMAX=   26   IYMAX=   26   IZMAX=   26
   IXMIN=  -26   IYMIN=  -26   IZMIN=    0

 WARNING: aliasing errors must be expected set NGX to 106 to avoid them
 WARNING: aliasing errors must be expected set NGY to 106 to avoid them
 WARNING: aliasing errors must be expected set NGZ to 106 to avoid them
 aliasing errors are usually negligible using standard VASP settings
 and one can safely disregard these warnings

 parallel 3D FFT for wavefunctions:
    minimum data exchange during FFTs selected (reduces bandwidth)
 parallel 3D FFT for charge:
    minimum data exchange during FFTs selected (reduces bandwidth)


 total amount of memory used by VASP on root node    64143. kBytes
========================================================================

   base      :      30000. kBytes
   nonl-proj :       1896. kBytes
   fftplans  :       7971. kBytes
   grid      :      20231. kBytes
   one-center:         31. kBytes
   wavefun   :       4014. kBytes
 
     INWAV:  cpu time    0.0001: real time    0.0004
 Broyden mixing: mesh for mixing (old mesh)
   NGX = 53   NGY = 53   NGZ = 53
  (NGX  =160   NGY  =160   NGZ  =160)
  gives a total of 148877 points

 initial charge density was supplied:
 charge density of overlapping atoms calculated
 number of electron      99.0000000 magnetization      27.0000000
 keeping initial charge density in first step


--------------------------------------------------------------------------------------------------------


 Maximum index for augmentation-charges          192 (set IRDMAX)


--------------------------------------------------------------------------------------------------------


 First call to EWALD:  gamma=   0.093
 Maximum number of real-space cells 3x 3x 3
 Maximum number of reciprocal cells 3x 3x 3

 FEWALD executed in parallel
    FEWALD:  cpu time    0.0018: real time    0.0018


----------------------------------------- Iteration    1(   1)  ---------------------------------------


    POTLOK:  cpu time    0.2910: real time    0.2910
    SETDIJ:  cpu time    0.0067: real time    0.0067
     EDDAV:  cpu time    0.7924: real time    0.7938
       DOS:  cpu time    0.0001: real time    0.0001
    --------------------------------------------
      LOOP:  cpu time    1.0930: real time    1.1076

 eigenvalue-minimisations  :   304
 total energy-change (2. order) : 0.6422697E+03  (-0.1656108E+04)
 number of electron      99.0000000 magnetization      27.0000000
 augmentation part       99.0000000 magnetization      27.0000000

 Free energy of the ion-electron system (eV)
  ---------------------------------------------------
  alpha Z        PSCENC =         8.66860006
  Ewald energy   TEWEN  =     10910.03883333
  -Hartree energ DENC   =    -22321.27404670
  -exchange      EXHF   =         0.00000000
  -V(xc)+E(xc)   XCENC  =       411.71189237
  PAW double counting   =     11044.95461822   -11996.06289171
  entropy T*S    EENTRO =         0.00000000
  eigenvalues    EBANDS =        65.81240905
  atomic energy  EATOM  =     12518.42026192
  Solvation  Ediel_sol  =         0.00000000
  ---------------------------------------------------
  free energy    TOTEN  =       642.26967654 eV

  energy without entropy =      642.26967654  energy(sigma->0) =      642.26967654


--------------------------------------------------------------------------------------------------------




----------------------------------------- Iteration    1(   2)  ---------------------------------------


     EDDAV:  cpu time    0.8459: real time    0.8465
       DOS:  cpu time    0.0001: real time    0.0001
    --------------------------------------------
      LOOP:  cpu time    0.8482: real time    0.8517

 eigenvalue-minimisations  :   344
 total energy-change (2. order) :-0.5341438E+03  (-0.4477685E+03)
 number of electron      99.0000000 magnetization      27.0000000
 augmentation part       99.0000000 magnetization      27.0000000

 Free energy of the ion-electron system (eV)
  ---------------------------------------------------
  alpha Z        PSCENC =         8.66860006
  Ewald energy   TEWEN  =     10910.03883333
  -Hartree energ DENC   =    -22321.27404670
  -exchange      EXHF   =         0.00000000
  -V(xc)+E(xc)   XCENC  =       411.71189237
  PAW double counting   =     11044.95461822   -11996.06289171
  entropy T*S    EENTRO =         0.00000000
  eigenvalues    EBANDS =      -468.33141986
  atomic energy  EATOM  =     12518.42026192
  Solvation  Ediel_sol  =         0.00000000
  ---------------------------------------------------
  free energy    TOTEN  =       108.12584764 eV

  energy without entropy =      108.12584764  energy(sigma->0) =      108.12584764


--------------------------------------------------------------------------------------------------------




----------------------------------------- Iteration    1(   3)  ---------------------------------------


     EDDAV:  cpu time    0.9810: real time    0.9818
       DOS:  cpu time    0.0001: real time    0.0001
    --------------------------------------------
      LOOP:  cpu time    0.9832: real time    0.9880

 eigenvalue-minimisations  :   408
 total energy-change (2. order) :-0.1078452E+03  (-0.9991189E+02)
 number of electron      99.0000000 magnetization      27.0000000
 augmentation part       99.0000000 magnetization      27.0000000

 Free energy of the ion-electron system (eV)
  ---------------------------------------------------
  alpha Z        PSCENC =         8.66860006
  Ewald energy   TEWEN  =     10910.03883333
  -Hartree energ DENC   =    -22321.27404670
  -exchange      EXHF   =         0.00000000
  -V(xc)+E(xc)   XCENC  =       411.71189237
  PAW double counting   =     11044.95461822   -11996.06289171
  entropy T*S    EENTRO =         0.00000000
  eigenvalues    EBANDS =      -576.17664210
  atomic energy  EATOM  =     12518.42026192
  Solvation  Ediel_sol  =         0.00000000
  ---------------------------------------------------
  free energy    TOTEN  =         0.28062539 eV

  energy without entropy =        0.28062539  energy(sigma->0) =        0.28062539


--------------------------------------------------------------------------------------------------------




----------------------------------------- Iteration    1(   4)  ---------------------------------------


     EDDAV:  cpu time    0.9097: real time    0.9104
       DOS:  cpu time    0.0001: real time    0.0001
    --------------------------------------------
      LOOP:  cpu time    0.9119: real time    0.9153

 eigenvalue-minimisations  :   376
 total energy-change (2. order) :-0.1162201E+02  (-0.1045619E+02)
 number of electron      99.0000000 magnetization      27.0000000
 augmentation part       99.0000000 magnetization      27.0000000

 Free energy of the ion-electron system (eV)
  ---------------------------------------------------
  alpha Z        PSCENC =         8.66860006
  Ewald energy   TEWEN  =     10910.03883333
  -Hartree energ DENC   =    -22321.27404670
  -exchange      EXHF   =         0.00000000
  -V(xc)+E(xc)   XCENC  =       411.71189237
  PAW double counting   =     11044.95461822   -11996.06289171
  entropy T*S    EENTRO =         0.00000000
  eigenvalues    EBANDS =      -587.79865220
  atomic energy  EATOM  =     12518.42026192
  Solvation  Ediel_sol  =         0.00000000
  ---------------------------------------------------
  free energy    TOTEN  =       -11.34138470 eV

  energy without entropy =      -11.34138470  energy(sigma->0) =      -11.34138470


--------------------------------------------------------------------------------------------------------




----------------------------------------- Iteration    1(   5)  ---------------------------------------


     EDDAV:  cpu time    0.8943: real time    0.8950
       DOS:  cpu time    0.0001: real time    0.0001
    CHARGE:  cpu time    0.0525: real time    0.0525
    MIXING:  cpu time    0.0073: real time    0.0073
    --------------------------------------------
      LOOP:  cpu time    0.9566: real time    0.9600

 eigenvalue-minimisations  :   368
 total energy-change (2. order) :-0.4225810E+00  (-0.4206079E+00)
 number of electron      98.9999825 magnetization      23.5222991
 augmentation part       59.3581738 magnetization      22.5382686

 Broyden mixing:
  rms(total) = 0.53472E+01    rms(broyden)= 0.53458E+01
  rms(prec ) = 0.54095E+01
  weight for this iteration     100.00

 Free energy of the ion-electron system (eV)
  ---------------------------------------------------
  alpha Z        PSCENC =         8.66860006
  Ewald energy   TEWEN  =     10910.03883333
  -Hartree energ DENC   =    -22321.27404670
  -exchange      EXHF   =         0.00000000
  -V(xc)+E(xc)   XCENC  =       411.71189237
  PAW double counting   =     11044.95461822   -11996.06289171
  entropy T*S    EENTRO =         0.00000000
  eigenvalues    EBANDS =      -588.22123316
  atomic energy  EATOM  =     12518.42026192
  Solvation  Ediel_sol  =         0.00000000
  ---------------------------------------------------
  free energy    TOTEN  =       -11.76396566 eV

  energy without entropy =      -11.76396566  energy(sigma->0) =      -11.76396566


--------------------------------------------------------------------------------------------------------




----------------------------------------- Iteration    1(   6)  ---------------------------------------


    POTLOK:  cpu time    0.2932: real time    0.2938
    SETDIJ:  cpu time    0.0075: real time    0.0075
     EDDAV:  cpu time    0.8512: real time    0.8523
       DOS:  cpu time    0.0001: real time    0.0001
    CHARGE:  cpu time    0.0530: real time    0.0530
    MIXING:  cpu time    0.0080: real time    0.0080
    --------------------------------------------
      LOOP:  cpu time    1.2161: real time    1.2206

 eigenvalue-minimisations  :   336
 total energy-change (2. order) : 0.8012813E+02  (-0.4348230E+02)
 number of electron      98.9999811 magnetization      21.4070154
 augmentation part       67.7966040 magnetization      12.0135030

 Broyden mixing:
  rms(total) = 0.21404E+01    rms(broyden)= 0.21381E+01
  rms(prec ) = 0.22621E+01
  weight for this iteration     100.00

 eigenvalues of (default mixing * dielectric matrix)
  average eigenvalue GAMMA=   0.9209
  0.9209

 Free energy of the ion-electron system (eV)
  ---------------------------------------------------
  alpha Z        PSCENC =         8.66860006
  Ewald energy   TEWEN  =     10910.03883333
  -Hartree energ DENC   =    -22099.66179924
  -exchange      EXHF   =         0.00000000
  -V(xc)+E(xc)   XCENC  =       460.24779530
  PAW double counting   =     11061.27665192   -11972.74061389
  entropy T*S    EENTRO =         0.00000000
  eigenvalues    EBANDS =      -817.88556284
  atomic energy  EATOM  =     12518.42026192
  Solvation  Ediel_sol  =         0.00000000
  ---------------------------------------------------
  free energy    TOTEN  =        68.36416655 eV

  energy without entropy =       68.36416655  energy(sigma->0) =       68.36416655


--------------------------------------------------------------------------------------------------------




----------------------------------------- Iteration    1(   7)  ---------------------------------------


    POTLOK:  cpu time    0.2930: real time    0.2939
    SETDIJ:  cpu time    0.0076: real time    0.0076
     EDDAV:  cpu time    0.8936: real time    0.8942
       DOS:  cpu time    0.0001: real time    0.0001
    CHARGE:  cpu time    0.0510: real time    0.0510
    MIXING:  cpu time    0.0077: real time    0.0077
    --------------------------------------------
      LOOP:  cpu time    1.2561: real time    1.2602

 eigenvalue-minimisations  :   368
 total energy-change (2. order) :-0.1966947E+02  (-0.1618353E+02)
 number of electron      98.9999817 magnetization      19.1550907
 augmentation part       64.1157261 magnetization       9.7497441

 Broyden mixing:
  rms(total) = 0.89498E+00    rms(broyden)= 0.89408E+00
  rms(prec ) = 0.91627E+00
  weight for this iteration     100.00

 eigenvalues of (default mixing * dielectric matrix)
  average eigenvalue GAMMA=   0.8611
  1.0443  0.6779

 Free energy of the ion-electron system (eV)
  ---------------------------------------------------
  alpha Z        PSCENC =         8.66860006
  Ewald energy   TEWEN  =     10910.03883333
  -Hartree energ DENC   =    -22288.79421804
  -exchange      EXHF   =         0.00000000
  -V(xc)+E(xc)   XCENC  =       452.96333185
  PAW double counting   =     11349.24817113   -12331.82592379
  entropy T*S    EENTRO =         0.00000000
  eigenvalues    EBANDS =      -570.02436054
  atomic energy  EATOM  =     12518.42026192
  Solvation  Ediel_sol  =         0.00000000
  ---------------------------------------------------
  free energy    TOTEN  =        48.69469591 eV

  energy without entropy =       48.69469591  energy(sigma->0) =       48.69469591


--------------------------------------------------------------------------------------------------------




----------------------------------------- Iteration    1(   8)  ---------------------------------------


    POTLOK:  cpu time    0.2909: real time    0.2912
    SETDIJ:  cpu time    0.0068: real time    0.0068
     EDDAV:  cpu time    0.9603: real time    0.9622
       DOS:  cpu time    0.0001: real time    0.0001
    CHARGE:  cpu time    0.0509: real time    0.0511
    MIXING:  cpu time    0.0080: real time    0.0080
    --------------------------------------------
      LOOP:  cpu time    1.3201: real time    1.3252

 eigenvalue-minimisations  :   408
 total energy-change (2. order) : 0.2339397E+01  (-0.1851694E+01)
 number of electron      98.9999820 magnetization      17.7831594
 augmentation part       63.5876878 magnetization       8.2842592

 Broyden mixing:
  rms(total) = 0.74618E+00    rms(broyden)= 0.74553E+00
  rms(prec ) = 0.77934E+00
  weight for this iteration     100.00

 eigenvalues of (default mixing * dielectric matrix)
  average eigenvalue GAMMA=   0.8207
  1.1544  0.7102  0.5976

 Free energy of the ion-electron system (eV)
  ---------------------------------------------------
  alpha Z        PSCENC =         8.66860006
  Ewald energy   TEWEN  =     10910.03883333
  -Hartree energ DENC   =    -22311.87302590
  -exchange      EXHF   =         0.00000000
  -V(xc)+E(xc)   XCENC  =       454.55094909
  PAW double counting   =     11512.89224087   -12496.56927985
  entropy T*S    EENTRO =        -0.00000000
  eigenvalues    EBANDS =      -545.09448666
  atomic energy  EATOM  =     12518.42026192
  Solvation  Ediel_sol  =         0.00000000
  ---------------------------------------------------
  free energy    TOTEN  =        51.03409286 eV

  energy without entropy =       51.03409286  energy(sigma->0) =       51.03409286


--------------------------------------------------------------------------------------------------------




----------------------------------------- Iteration    1(   9)  ---------------------------------------


    POTLOK:  cpu time    0.2965: real time    0.2972
    SETDIJ:  cpu time    0.0067: real time    0.0067
     EDDAV:  cpu time    0.9027: real time    0.9037
       DOS:  cpu time    0.0001: real time    0.0001
    CHARGE:  cpu time    0.0511: real time    0.0511
    MIXING:  cpu time    0.0085: real time    0.0085
    --------------------------------------------
      LOOP:  cpu time    1.2688: real time    1.2733

 eigenvalue-minimisations  :   376
 total energy-change (2. order) :-0.7493396E+01  (-0.4533410E+00)
 number of electron      98.9999820 magnetization      15.3065708
 augmentation part       63.6770899 magnetization       5.9597881

 Broyden mixing:
  rms(total) = 0.48199E+00    rms(broyden)= 0.48157E+00
  rms(prec ) = 0.49042E+00
  weight for this iteration     100.00

 eigenvalues of (default mixing * dielectric matrix)
  average eigenvalue GAMMA=   0.8902
  1.1643  1.1643  0.7507  0.4815

 Free energy of the ion-electron system (eV)
  ---------------------------------------------------
  alpha Z        PSCENC =         8.66860006
  Ewald energy   TEWEN  =     10910.03883333
  -Hartree energ DENC   =    -22305.55619519
  -exchange      EXHF   =         0.00000000
  -V(xc)+E(xc)   XCENC  =       447.89659803
  PAW double counting   =     11558.14254716   -12536.74655490
  entropy T*S    EENTRO =         0.00000000
  eigenvalues    EBANDS =      -557.32339308
  atomic energy  EATOM  =     12518.42026192
  Solvation  Ediel_sol  =         0.00000000
  ---------------------------------------------------
  free energy    TOTEN  =        43.54069731 eV

  energy without entropy =       43.54069731  energy(sigma->0) =       43.54069731


--------------------------------------------------------------------------------------------------------




----------------------------------------- Iteration    1(  10)  ---------------------------------------


    POTLOK:  cpu time    0.2915: real time    0.2915
    SETDIJ:  cpu time    0.0070: real time    0.0070
     EDDAV:  cpu time    1.0042: real time    1.0050
       DOS:  cpu time    0.0001: real time    0.0001
    CHARGE:  cpu time    0.0527: real time    0.0527
    MIXING:  cpu time    0.0093: real time    0.0093
    --------------------------------------------
      LOOP:  cpu time    1.3679: real time    1.3716

 eigenvalue-minimisations  :   420
 total energy-change (2. order) :-0.1940111E+02  (-0.9486156E+00)
 number of electron      98.9999813 magnetization      13.4660442
 augmentation part       63.9744689 magnetization       6.4431483

 Broyden mixing:
  rms(total) = 0.47422E+00    rms(broyden)= 0.47283E+00
  rms(prec ) = 0.50016E+00
  weight for this iteration     100.00

 eigenvalues of (default mixing * dielectric matrix)
  average eigenvalue GAMMA=   0.8753
  1.3742  1.3742  0.7129  0.4996  0.4154

 Free energy of the ion-electron system (eV)
  ---------------------------------------------------
  alpha Z        PSCENC =         8.66860006
  Ewald energy   TEWEN  =     10910.03883333
  -Hartree energ DENC   =    -22293.02583381
  -exchange      EXHF   =         0.00000000
  -V(xc)+E(xc)   XCENC  =       432.00779343
  PAW double counting   =     11597.44464428   -12566.19235512
  entropy T*S    EENTRO =         0.00000000
  eigenvalues    EBANDS =      -583.22235376
  atomic energy  EATOM  =     12518.42026192
  Solvation  Ediel_sol  =         0.00000000
  ---------------------------------------------------
  free energy    TOTEN  =        24.13959032 eV

  energy without entropy =       24.13959032  energy(sigma->0) =       24.13959032


--------------------------------------------------------------------------------------------------------




----------------------------------------- Iteration    1(  11)  ---------------------------------------


    POTLOK:  cpu time    0.2932: real time    0.2938
    SETDIJ:  cpu time    0.0075: real time    0.0075
     EDDAV:  cpu time    0.9332: real time    0.9340
       DOS:  cpu time    0.0001: real time    0.0001
    CHARGE:  cpu time    0.0501: real time    0.0504
    MIXING:  cpu time    0.0093: real time    0.0093
    --------------------------------------------
      LOOP:  cpu time    1.2964: real time    1.3010

 eigenvalue-minimisations  :   392
 total energy-change (2. order) :-0.7381859E+01  (-0.5145396E+00)
 number of electron      98.9999817 magnetization      12.6686840
 augmentation part       64.0215549 magnetization       7.6325888

 Broyden mixing:
  rms(total) = 0.50479E+00    rms(broyden)= 0.50334E+00
  rms(prec ) = 0.52819E+00
  weight for this iteration     100.00

 eigenvalues of (default mixing * dielectric matrix)
  average eigenvalue GAMMA=   0.7909
  1.6925  1.1679  0.7284  0.4020  0.4020  0.3527

 Free energy of the ion-electron system (eV)
  ---------------------------------------------------
  alpha Z        PSCENC =         8.66860006
  Ewald energy   TEWEN  =     10910.03883333
  -Hartree energ DENC   =    -22300.22701427
  -exchange      EXHF   =         0.00000000
  -V(xc)+E(xc)   XCENC  =       426.76886191
  PAW double counting   =     11639.13997728   -12605.39272668
  entropy T*S    EENTRO =         0.00000000
  eigenvalues    EBANDS =      -580.65906266
  atomic energy  EATOM  =     12518.42026192
  Solvation  Ediel_sol  =         0.00000000
  ---------------------------------------------------
  free energy    TOTEN  =        16.75773090 eV

  energy without entropy =       16.75773090  energy(sigma->0) =       16.75773090


--------------------------------------------------------------------------------------------------------




----------------------------------------- Iteration    1(  12)  ---------------------------------------


    POTLOK:  cpu time    0.2916: real time    0.2916
    SETDIJ:  cpu time    0.0067: real time    0.0067
     EDDAV:  cpu time    0.9035: real time    0.9044
       DOS:  cpu time    0.0001: real time    0.0001
    CHARGE:  cpu time    0.0506: real time    0.0506
    MIXING:  cpu time    0.0098: real time    0.0098
    --------------------------------------------
      LOOP:  cpu time    1.2655: real time    1.2693

 eigenvalue-minimisations  :   376
 total energy-change (2. order) :-0.1508421E+01  (-0.1514695E+00)
 number of electron      98.9999819 magnetization      11.0691850
 augmentation part       63.9159729 magnetization       6.2462463

 Broyden mixing:
  rms(total) = 0.42129E+00    rms(broyden)= 0.42120E+00
  rms(prec ) = 0.43856E+00
  weight for this iteration     100.00

 eigenvalues of (default mixing * dielectric matrix)
  average eigenvalue GAMMA=   0.8797
  1.6769  1.6769  0.6147  0.6147  0.6900  0.5059  0.3792

 Free energy of the ion-electron system (eV)
  ---------------------------------------------------
  alpha Z        PSCENC =         8.66860006
  Ewald energy   TEWEN  =     10910.03883333
  -Hartree energ DENC   =    -22308.27202076
  -exchange      EXHF   =         0.00000000
  -V(xc)+E(xc)   XCENC  =       426.14794969
  PAW double counting   =     11662.17750133   -12628.60095970
  entropy T*S    EENTRO =         0.00000000
  eigenvalues    EBANDS =      -573.33085606
  atomic energy  EATOM  =     12518.42026192
  Solvation  Ediel_sol  =         0.00000000
  ---------------------------------------------------
  free energy    TOTEN  =        15.24930981 eV

  energy without entropy =       15.24930981  energy(sigma->0) =       15.24930981


--------------------------------------------------------------------------------------------------------




----------------------------------------- Iteration    1(  13)  ---------------------------------------


    POTLOK:  cpu time    0.2918: real time    0.2918
    SETDIJ:  cpu time    0.0070: real time    0.0070
     EDDAV:  cpu time    0.9311: real time    0.9319
       DOS:  cpu time    0.0001: real time    0.0001
    CHARGE:  cpu time    0.0504: real time    0.0504
    MIXING:  cpu time    0.0103: real time    0.0103
    --------------------------------------------
      LOOP:  cpu time    1.2940: real time    1.2977

 eigenvalue-minimisations  :   392
 total energy-change (2. order) :-0.6733095E+01  (-0.3231160E+00)
 number of electron      98.9999818 magnetization       8.1561438
 augmentation part       63.8555403 magnetization       3.7138378

 Broyden mixing:
  rms(total) = 0.32988E+00    rms(broyden)= 0.32983E+00
  rms(prec ) = 0.34255E+00
  weight for this iteration     100.00

 eigenvalues of (default mixing * dielectric matrix)
  average eigenvalue GAMMA=   1.0373
  2.8182  1.9513  0.7248  0.7248  0.6246  0.6246  0.4149  0.4149

 Free energy of the ion-electron system (eV)
  ---------------------------------------------------
  alpha Z        PSCENC =         8.66860006
  Ewald energy   TEWEN  =     10910.03883333
  -Hartree energ DENC   =    -22314.79692251
  -exchange      EXHF   =         0.00000000
  -V(xc)+E(xc)   XCENC  =       421.25987434
  PAW double counting   =     11672.45896993   -12637.37165793
  entropy T*S    EENTRO =         0.00000000
  eigenvalues    EBANDS =      -570.16174462
  atomic energy  EATOM  =     12518.42026192
  Solvation  Ediel_sol  =         0.00000000
  ---------------------------------------------------
  free energy    TOTEN  =         8.51621452 eV

  energy without entropy =        8.51621452  energy(sigma->0) =        8.51621452


--------------------------------------------------------------------------------------------------------




----------------------------------------- Iteration    1(  14)  ---------------------------------------


    POTLOK:  cpu time    0.2914: real time    0.2918
    SETDIJ:  cpu time    0.0069: real time    0.0069
     EDDAV:  cpu time    0.9245: real time    0.9251
       DOS:  cpu time    0.0001: real time    0.0001
    CHARGE:  cpu time    0.0510: real time    0.0511
    MIXING:  cpu time    0.0109: real time    0.0109
    --------------------------------------------
      LOOP:  cpu time    1.2881: real time    1.2920

 eigenvalue-minimisations  :   388
 total energy-change (2. order) :-0.1326617E+02  (-0.9127935E+00)
 number of electron      98.9999820 magnetization       6.9847716
 augmentation part       63.8197299 magnetization       5.0063188

 Broyden mixing:
  rms(total) = 0.34521E+00    rms(broyden)= 0.34421E+00
  rms(prec ) = 0.36749E+00
  weight for this iteration     100.00

 eigenvalues of (default mixing * dielectric matrix)
  average eigenvalue GAMMA=   0.9824
  3.2249  1.7768  0.7365  0.7365  0.5860  0.5860  0.5406  0.3980  0.2563

 Free energy of the ion-electron system (eV)
  ---------------------------------------------------
  alpha Z        PSCENC =         8.66860006
  Ewald energy   TEWEN  =     10910.03883333
  -Hartree energ DENC   =    -22320.12366423
  -exchange      EXHF   =         0.00000000
  -V(xc)+E(xc)   XCENC  =       410.66453462
  PAW double counting   =     11657.00776080   -12619.66178154
  entropy T*S    EENTRO =        -0.00000000
  eigenvalues    EBANDS =      -569.76450171
  atomic energy  EATOM  =     12518.42026192
  Solvation  Ediel_sol  =         0.00000000
  ---------------------------------------------------
  free energy    TOTEN  =        -4.74995676 eV

  energy without entropy =       -4.74995676  energy(sigma->0) =       -4.74995676


--------------------------------------------------------------------------------------------------------




----------------------------------------- Iteration    1(  15)  ---------------------------------------


    POTLOK:  cpu time    0.2917: real time    0.2917
    SETDIJ:  cpu time    0.0069: real time    0.0069
     EDDAV:  cpu time    1.0472: real time    1.0480
       DOS:  cpu time    0.0001: real time    0.0001
    CHARGE:  cpu time    0.0512: real time    0.0512
    MIXING:  cpu time    0.0115: real time    0.0115
    --------------------------------------------
      LOOP:  cpu time    1.4118: real time    1.4161

 eigenvalue-minimisations  :   456
 total energy-change (2. order) :-0.2212926E+01  (-0.1478007E+00)
 number of electron      98.9999820 magnetization       5.0262634
 augmentation part       63.6634592 magnetization       3.3007180

 Broyden mixing:
  rms(total) = 0.23703E+00    rms(broyden)= 0.23693E+00
  rms(prec ) = 0.25376E+00
  weight for this iteration     100.00

 eigenvalues of (default mixing * dielectric matrix)
  average eigenvalue GAMMA=   1.0969
  4.0424  1.9846  0.8654  0.8654  0.6522  0.6522  0.5615  0.5615  0.3919  0.3919

 Free energy of the ion-electron system (eV)
  ---------------------------------------------------
  alpha Z        PSCENC =         8.66860006
  Ewald energy   TEWEN  =     10910.03883333
  -Hartree energ DENC   =    -22328.00801599
  -exchange      EXHF   =         0.00000000
  -V(xc)+E(xc)   XCENC  =       409.34570686
  PAW double counting   =     11669.96431232   -12633.25513647
  entropy T*S    EENTRO =         0.00000000
  eigenvalues    EBANDS =      -562.13744514
  atomic energy  EATOM  =     12518.42026192
  Solvation  Ediel_sol  =         0.00000000
  ---------------------------------------------------
  free energy    TOTEN  =        -6.96288310 eV

  energy without entropy =       -6.96288310  energy(sigma->0) =       -6.96288310


--------------------------------------------------------------------------------------------------------




----------------------------------------- Iteration    1(  16)  ---------------------------------------


    POTLOK:  cpu time    0.2915: real time    0.2918
    SETDIJ:  cpu time    0.0069: real time    0.0069
     EDDAV:  cpu time    0.9672: real time    0.9695
       DOS:  cpu time    0.0001: real time    0.0001
    CHARGE:  cpu time    0.0525: real time    0.0525
    MIXING:  cpu time    0.0131: real time    0.0131
    --------------------------------------------
      LOOP:  cpu time    1.3346: real time    1.3399

 eigenvalue-minimisations  :   400
 total energy-change (2. order) :-0.4878678E+01  (-0.2827436E+00)
 number of electron      98.9999819 magnetization       3.3738002
 augmentation part       63.7040438 magnetization       2.0035808

 Broyden mixing:
  rms(total) = 0.17347E+00    rms(broyden)= 0.17342E+00
  rms(prec ) = 0.18640E+00
  weight for this iteration     100.00

 eigenvalues of (default mixing * dielectric matrix)
  average eigenvalue GAMMA=   1.1552
  4.7164  1.8871  1.1687  1.1687  0.6722  0.6722  0.5606  0.5606  0.4706  0.4519
  0.3782

 Free energy of the ion-electron system (eV)
  ---------------------------------------------------
  alpha Z        PSCENC =         8.66860006
  Ewald energy   TEWEN  =     10910.03883333
  -Hartree energ DENC   =    -22327.84589821
  -exchange      EXHF   =         0.00000000
  -V(xc)+E(xc)   XCENC  =       405.52448023
  PAW double counting   =     11652.50725890   -12614.51145830
  entropy T*S    EENTRO =        -0.00000000
  eigenvalues    EBANDS =      -564.64363862
  atomic energy  EATOM  =     12518.42026192
  Solvation  Ediel_sol  =         0.00000000
  ---------------------------------------------------
  free energy    TOTEN  =       -11.84156069 eV

  energy without entropy =      -11.84156069  energy(sigma->0) =      -11.84156069


--------------------------------------------------------------------------------------------------------




----------------------------------------- Iteration    1(  17)  ---------------------------------------


    POTLOK:  cpu time    0.2949: real time    0.2954
    SETDIJ:  cpu time    0.0074: real time    0.0074
     EDDAV:  cpu time    1.0071: real time    1.0080
       DOS:  cpu time    0.0001: real time    0.0001
    CHARGE:  cpu time    0.0522: real time    0.0522
    MIXING:  cpu time    0.0135: real time    0.0135
    --------------------------------------------
      LOOP:  cpu time    1.3783: real time    1.3824

 eigenvalue-minimisations  :   432
 total energy-change (2. order) :-0.4251139E+01  (-0.2197454E+00)
 number of electron      98.9999819 magnetization       2.6585040
 augmentation part       63.6229045 magnetization       1.5331287

 Broyden mixing:
  rms(total) = 0.97888E-01    rms(broyden)= 0.97819E-01
  rms(prec ) = 0.10591E+00
  weight for this iteration     100.00

 eigenvalues of (default mixing * dielectric matrix)
  average eigenvalue GAMMA=   1.1914
  5.1425  2.1056  1.1710  1.1710  0.7885  0.7885  0.5617  0.5617  0.6084  0.6084
  0.4136  0.3754

 Free energy of the ion-electron system (eV)
  ---------------------------------------------------
  alpha Z        PSCENC =         8.66860006
  Ewald energy   TEWEN  =     10910.03883333
  -Hartree energ DENC   =    -22327.10817530
  -exchange      EXHF   =         0.00000000
  -V(xc)+E(xc)   XCENC  =       402.12858262
  PAW double counting   =     11625.85210405   -12588.32136142
  entropy T*S    EENTRO =         0.00000000
  eigenvalues    EBANDS =      -565.77154493
  atomic energy  EATOM  =     12518.42026192
  Solvation  Ediel_sol  =         0.00000000
  ---------------------------------------------------
  free energy    TOTEN  =       -16.09269967 eV

  energy without entropy =      -16.09269967  energy(sigma->0) =      -16.09269967


--------------------------------------------------------------------------------------------------------




----------------------------------------- Iteration    1(  18)  ---------------------------------------


    POTLOK:  cpu time    0.2918: real time    0.2923
    SETDIJ:  cpu time    0.0069: real time    0.0069
     EDDAV:  cpu time    0.9331: real time    0.9340
       DOS:  cpu time    0.0001: real time    0.0001
    CHARGE:  cpu time    0.0536: real time    0.0536
    MIXING:  cpu time    0.0134: real time    0.0134
    --------------------------------------------
      LOOP:  cpu time    1.3022: real time    1.3070

 eigenvalue-minimisations  :   392
 total energy-change (2. order) :-0.1849086E+01  (-0.6107144E-01)
 number of electron      98.9999819 magnetization       1.8363059
 augmentation part       63.5831589 magnetization       0.7813346

 Broyden mixing:
  rms(total) = 0.82526E-01    rms(broyden)= 0.82501E-01
  rms(prec ) = 0.90336E-01
  weight for this iteration     100.00

 eigenvalues of (default mixing * dielectric matrix)
  average eigenvalue GAMMA=   1.2551
  5.7506  2.5073  1.2970  1.2970  0.8833  0.8833  0.6522  0.6522  0.5389  0.5389
  0.5218  0.4225  0.3712

 Free energy of the ion-electron system (eV)
  ---------------------------------------------------
  alpha Z        PSCENC =         8.66860006
  Ewald energy   TEWEN  =     10910.03883333
  -Hartree energ DENC   =    -22322.21534615
  -exchange      EXHF   =         0.00000000
  -V(xc)+E(xc)   XCENC  =       400.57575965
  PAW double counting   =     11607.33032452   -12570.62377309
  entropy T*S    EENTRO =         0.00000000
  eigenvalues    EBANDS =      -570.13644553
  atomic energy  EATOM  =     12518.42026192
  Solvation  Ediel_sol  =         0.00000000
  ---------------------------------------------------
  free energy    TOTEN  =       -17.94178528 eV

  energy without entropy =      -17.94178528  energy(sigma->0) =      -17.94178528


--------------------------------------------------------------------------------------------------------




----------------------------------------- Iteration    1(  19)  ---------------------------------------


    POTLOK:  cpu time    0.2933: real time    0.2934
    SETDIJ:  cpu time    0.0069: real time    0.0069
     EDDAV:  cpu time    0.9600: real time    0.9609
       DOS:  cpu time    0.0001: real time    0.0001
    CHARGE:  cpu time    0.0513: real time    0.0513
    MIXING:  cpu time    0.0141: real time    0.0141
    --------------------------------------------
      LOOP:  cpu time    1.3289: real time    1.3328

 eigenvalue-minimisations  :   408
 total energy-change (2. order) :-0.1151174E+01  (-0.2789653E-01)
 number of electron      98.9999820 magnetization       1.6066093
 augmentation part       63.6043716 magnetization       0.6380485

 Broyden mixing:
  rms(total) = 0.59230E-01    rms(broyden)= 0.59214E-01
  rms(prec ) = 0.66094E-01
  weight for this iteration     100.00

 eigenvalues of (default mixing * dielectric matrix)
  average eigenvalue GAMMA=   1.2589
  5.7703  2.4295  1.8886  1.1736  1.1736  0.8570  0.6969  0.6969  0.5318  0.5318
  0.5812  0.4986  0.4236  0.3716

 Free energy of the ion-electron system (eV)
  ---------------------------------------------------
  alpha Z        PSCENC =         8.66860006
  Ewald energy   TEWEN  =     10910.03883333
  -Hartree energ DENC   =    -22315.41046323
  -exchange      EXHF   =         0.00000000
  -V(xc)+E(xc)   XCENC  =       399.43421081
  PAW double counting   =     11587.27537514   -12550.60404866
  entropy T*S    EENTRO =         0.00000000
  eigenvalues    EBANDS =      -576.91572844
  atomic energy  EATOM  =     12518.42026192
  Solvation  Ediel_sol  =         0.00000000
  ---------------------------------------------------
  free energy    TOTEN  =       -19.09295907 eV

  energy without entropy =      -19.09295907  energy(sigma->0) =      -19.09295907


--------------------------------------------------------------------------------------------------------




----------------------------------------- Iteration    1(  20)  ---------------------------------------


    POTLOK:  cpu time    0.2918: real time    0.2921
    SETDIJ:  cpu time    0.0068: real time    0.0068
     EDDAV:  cpu time    0.9950: real time    0.9959
       DOS:  cpu time    0.0001: real time    0.0001
    CHARGE:  cpu time    0.0512: real time    0.0512
    MIXING:  cpu time    0.0149: real time    0.0149
    --------------------------------------------
      LOOP:  cpu time    1.3630: real time    1.3671

 eigenvalue-minimisations  :   424
 total energy-change (2. order) :-0.7799658E+00  (-0.7842035E-02)
 number of electron      98.9999819 magnetization       1.4480532
 augmentation part       63.6185517 magnetization       0.4845827

 Broyden mixing:
  rms(total) = 0.33128E-01    rms(broyden)= 0.33114E-01
  rms(prec ) = 0.37623E-01
  weight for this iteration     100.00

 eigenvalues of (default mixing * dielectric matrix)
  average eigenvalue GAMMA=   1.3172
  5.8780  3.5282  1.5697  1.5697  1.1297  1.1297  0.6885  0.6885  0.5387  0.5387
  0.6015  0.6015  0.3721  0.4150  0.5082

 Free energy of the ion-electron system (eV)
  ---------------------------------------------------
  alpha Z        PSCENC =         8.66860006
  Ewald energy   TEWEN  =     10910.03883333
  -Hartree energ DENC   =    -22308.72360991
  -exchange      EXHF   =         0.00000000
  -V(xc)+E(xc)   XCENC  =       398.62568559
  PAW double counting   =     11576.28288422   -12539.94685083
  entropy T*S    EENTRO =         0.00000000
  eigenvalues    EBANDS =      -583.23872922
  atomic energy  EATOM  =     12518.42026192
  Solvation  Ediel_sol  =         0.00000000
  ---------------------------------------------------
  free energy    TOTEN  =       -19.87292484 eV

  energy without entropy =      -19.87292484  energy(sigma->0) =      -19.87292484


--------------------------------------------------------------------------------------------------------




----------------------------------------- Iteration    1(  21)  ---------------------------------------


    POTLOK:  cpu time    0.2912: real time    0.2916
    SETDIJ:  cpu time    0.0069: real time    0.0069
     EDDAV:  cpu time    1.0060: real time    1.0067
       DOS:  cpu time    0.0001: real time    0.0001
    CHARGE:  cpu time    0.0509: real time    0.0509
    MIXING:  cpu time    0.0157: real time    0.0157
    --------------------------------------------
      LOOP:  cpu time    1.3739: real time    1.3779

 eigenvalue-minimisations  :   432
 total energy-change (2. order) :-0.6998851E+00  (-0.3611138E-02)
 number of electron      98.9999819 magnetization       1.2030600
 augmentation part       63.6347253 magnetization       0.2446636

 Broyden mixing:
  rms(total) = 0.19167E-01    rms(broyden)= 0.19154E-01
  rms(prec ) = 0.21964E-01
  weight for this iteration     100.00

 eigenvalues of (default mixing * dielectric matrix)
  average eigenvalue GAMMA=   1.3579
  6.5542  3.4118  1.8616  1.8616  1.0814  1.0814  0.8065  0.8065  0.6905  0.6905
  0.5352  0.5352  0.5384  0.3720  0.4181  0.4819

 Free energy of the ion-electron system (eV)
  ---------------------------------------------------
  alpha Z        PSCENC =         8.66860006
  Ewald energy   TEWEN  =     10910.03883333
  -Hartree energ DENC   =    -22302.46404283
  -exchange      EXHF   =         0.00000000
  -V(xc)+E(xc)   XCENC  =       397.87700921
  PAW double counting   =     11565.19954107   -12529.06659122
  entropy T*S    EENTRO =         0.00000000
  eigenvalues    EBANDS =      -589.24642147
  atomic energy  EATOM  =     12518.42026192
  Solvation  Ediel_sol  =         0.00000000
  ---------------------------------------------------
  free energy    TOTEN  =       -20.57280993 eV

  energy without entropy =      -20.57280993  energy(sigma->0) =      -20.57280993


--------------------------------------------------------------------------------------------------------




----------------------------------------- Iteration    1(  22)  ---------------------------------------


    POTLOK:  cpu time    0.2914: real time    0.2918
    SETDIJ:  cpu time    0.0069: real time    0.0069
     EDDAV:  cpu time    0.9614: real time    0.9621
       DOS:  cpu time    0.0001: real time    0.0001
    CHARGE:  cpu time    0.0511: real time    0.0511
    MIXING:  cpu time    0.0167: real time    0.0167
    --------------------------------------------
      LOOP:  cpu time    1.3307: real time    1.3346

 eigenvalue-minimisations  :   408
 total energy-change (2. order) :-0.3067067E+00  (-0.1444135E-02)
 number of electron      98.9999819 magnetization       1.1054412
 augmentation part       63.6371265 magnetization       0.1675146

 Broyden mixing:
  rms(total) = 0.16319E-01    rms(broyden)= 0.16314E-01
  rms(prec ) = 0.18403E-01
  weight for this iteration     100.00

 eigenvalues of (default mixing * dielectric matrix)
  average eigenvalue GAMMA=   1.3501
  6.7355  2.8526  2.8526  1.4797  1.4797  1.0362  1.0362  0.6794  0.6794  0.7154
  0.5349  0.5349  0.3720  0.5318  0.5318  0.4196  0.4801

 Free energy of the ion-electron system (eV)
  ---------------------------------------------------
  alpha Z        PSCENC =         8.66860006
  Ewald energy   TEWEN  =     10910.03883333
  -Hartree energ DENC   =    -22300.15512802
  -exchange      EXHF   =         0.00000000
  -V(xc)+E(xc)   XCENC  =       397.55394442
  PAW double counting   =     11563.46129845   -12527.44403342
  entropy T*S    EENTRO =         0.00000000
  eigenvalues    EBANDS =      -591.42329334
  atomic energy  EATOM  =     12518.42026192
  Solvation  Ediel_sol  =         0.00000000
  ---------------------------------------------------
  free energy    TOTEN  =       -20.87951659 eV

  energy without entropy =      -20.87951659  energy(sigma->0) =      -20.87951659


--------------------------------------------------------------------------------------------------------




----------------------------------------- Iteration    1(  23)  ---------------------------------------


    POTLOK:  cpu time    0.2922: real time    0.2924
    SETDIJ:  cpu time    0.0068: real time    0.0068
     EDDAV:  cpu time    0.9356: real time    0.9375
       DOS:  cpu time    0.0001: real time    0.0001
    CHARGE:  cpu time    0.0514: real time    0.0515
    MIXING:  cpu time    0.0176: real time    0.0176
    --------------------------------------------
      LOOP:  cpu time    1.3069: real time    1.3119

 eigenvalue-minimisations  :   388
 total energy-change (2. order) :-0.7851920E-01  (-0.3059315E-03)
 number of electron      98.9999819 magnetization       1.0254231
 augmentation part       63.6233720 magnetization       0.0895678

 Broyden mixing:
  rms(total) = 0.82097E-02    rms(broyden)= 0.82067E-02
  rms(prec ) = 0.10305E-01
  weight for this iteration     100.00

 eigenvalues of (default mixing * dielectric matrix)
  average eigenvalue GAMMA=   1.3868
  7.0416  3.1661  3.1661  1.5107  1.5107  1.1169  1.1169  0.8191  0.6925  0.6925
  0.5348  0.5348  0.6519  0.6519  0.3720  0.4185  0.4826  0.4826

 Free energy of the ion-electron system (eV)
  ---------------------------------------------------
  alpha Z        PSCENC =         8.66860006
  Ewald energy   TEWEN  =     10910.03883333
  -Hartree energ DENC   =    -22299.95954029
  -exchange      EXHF   =         0.00000000
  -V(xc)+E(xc)   XCENC  =       397.48925754
  PAW double counting   =     11567.61276499   -12531.79063940
  entropy T*S    EENTRO =         0.00000000
  eigenvalues    EBANDS =      -591.43757395
  atomic energy  EATOM  =     12518.42026192
  Solvation  Ediel_sol  =         0.00000000
  ---------------------------------------------------
  free energy    TOTEN  =       -20.95803579 eV

  energy without entropy =      -20.95803579  energy(sigma->0) =      -20.95803579


--------------------------------------------------------------------------------------------------------




----------------------------------------- Iteration    1(  24)  ---------------------------------------


    POTLOK:  cpu time    0.2911: real time    0.2913
    SETDIJ:  cpu time    0.0069: real time    0.0069
     EDDAV:  cpu time    0.9746: real time    0.9755
       DOS:  cpu time    0.0001: real time    0.0001
    CHARGE:  cpu time    0.0514: real time    0.0514
    MIXING:  cpu time    0.0188: real time    0.0188
    --------------------------------------------
      LOOP:  cpu time    1.3462: real time    1.3501

 eigenvalue-minimisations  :   416
 total energy-change (2. order) :-0.5621967E-01  (-0.2095399E-03)
 number of electron      98.9999819 magnetization       1.0301994
 augmentation part       63.6212563 magnetization       0.0946807

 Broyden mixing:
  rms(total) = 0.59980E-02    rms(broyden)= 0.59966E-02
  rms(prec ) = 0.76458E-02
  weight for this iteration     100.00

 eigenvalues of (default mixing * dielectric matrix)
  average eigenvalue GAMMA=   1.3890
  7.0359  3.2731  3.2731  1.5490  1.5490  1.4969  1.0090  1.0090  0.8251  0.6779
  0.6779  0.5345  0.5345  0.6031  0.6031  0.3720  0.4193  0.4804  0.4681

 Free energy of the ion-electron system (eV)
  ---------------------------------------------------
  alpha Z        PSCENC =         8.66860006
  Ewald energy   TEWEN  =     10910.03883333
  -Hartree energ DENC   =    -22298.64286359
  -exchange      EXHF   =         0.00000000
  -V(xc)+E(xc)   XCENC  =       397.41623407
  PAW double counting   =     11569.34725440   -12533.55564940
  entropy T*S    EENTRO =         0.00000000
  eigenvalues    EBANDS =      -592.70692626
  atomic energy  EATOM  =     12518.42026192
  Solvation  Ediel_sol  =         0.00000000
  ---------------------------------------------------
  free energy    TOTEN  =       -21.01425547 eV

  energy without entropy =      -21.01425547  energy(sigma->0) =      -21.01425547


--------------------------------------------------------------------------------------------------------




----------------------------------------- Iteration    1(  25)  ---------------------------------------


    POTLOK:  cpu time    0.2911: real time    0.2911
    SETDIJ:  cpu time    0.0069: real time    0.0069
     EDDAV:  cpu time    0.9977: real time    0.9987
       DOS:  cpu time    0.0001: real time    0.0001
    CHARGE:  cpu time    0.0514: real time    0.0514
    MIXING:  cpu time    0.0201: real time    0.0201
    --------------------------------------------
      LOOP:  cpu time    1.3705: real time    1.3743

 eigenvalue-minimisations  :   428
 total energy-change (2. order) :-0.1514368E-01  (-0.9075089E-04)
 number of electron      98.9999819 magnetization       1.0251036
 augmentation part       63.6273222 magnetization       0.0839454

 Broyden mixing:
  rms(total) = 0.32475E-02    rms(broyden)= 0.32451E-02
  rms(prec ) = 0.46037E-02
  weight for this iteration     100.00

 eigenvalues of (default mixing * dielectric matrix)
  average eigenvalue GAMMA=   1.3743
  7.0324  3.6207  2.5137  2.5137  1.3960  1.3960  1.0250  1.0250  0.6834  0.6834
  0.7547  0.7547  0.7072  0.5344  0.5344  0.5722  0.3719  0.4192  0.4739  0.4739

 Free energy of the ion-electron system (eV)
  ---------------------------------------------------
  alpha Z        PSCENC =         8.66860006
  Ewald energy   TEWEN  =     10910.03883333
  -Hartree energ DENC   =    -22297.32555900
  -exchange      EXHF   =         0.00000000
  -V(xc)+E(xc)   XCENC  =       397.38233396
  PAW double counting   =     11569.42981466   -12533.57715301
  entropy T*S    EENTRO =         0.00000000
  eigenvalues    EBANDS =      -594.06653107
  atomic energy  EATOM  =     12518.42026192
  Solvation  Ediel_sol  =         0.00000000
  ---------------------------------------------------
  free energy    TOTEN  =       -21.02939915 eV

  energy without entropy =      -21.02939915  energy(sigma->0) =      -21.02939915


--------------------------------------------------------------------------------------------------------




----------------------------------------- Iteration    1(  26)  ---------------------------------------


    POTLOK:  cpu time    0.2906: real time    0.2911
    SETDIJ:  cpu time    0.0069: real time    0.0069
     EDDAV:  cpu time    1.0143: real time    1.0151
       DOS:  cpu time    0.0001: real time    0.0001
    CHARGE:  cpu time    0.0529: real time    0.0529
    MIXING:  cpu time    0.0232: real time    0.0232
    --------------------------------------------
      LOOP:  cpu time    1.3910: real time    1.3952

 eigenvalue-minimisations  :   424
 total energy-change (2. order) :-0.1752381E-02  (-0.2890952E-04)
 number of electron      98.9999819 magnetization       1.0080700
 augmentation part       63.6290170 magnetization       0.0662378

 Broyden mixing:
  rms(total) = 0.23862E-02    rms(broyden)= 0.23854E-02
  rms(prec ) = 0.35510E-02
  weight for this iteration     100.00

 eigenvalues of (default mixing * dielectric matrix)
  average eigenvalue GAMMA=   1.3798
  7.0973  3.6241  2.7088  2.7088  1.4448  1.4448  1.0310  1.0310  0.9611  0.9611
  0.6774  0.6774  0.5342  0.5342  0.6274  0.6274  0.3719  0.4193  0.5374  0.4782
  0.4782

 Free energy of the ion-electron system (eV)
  ---------------------------------------------------
  alpha Z        PSCENC =         8.66860006
  Ewald energy   TEWEN  =     10910.03883333
  -Hartree energ DENC   =    -22296.81253019
  -exchange      EXHF   =         0.00000000
  -V(xc)+E(xc)   XCENC  =       397.37596798
  PAW double counting   =     11569.56184690   -12533.68429194
  entropy T*S    EENTRO =         0.00000000
  eigenvalues    EBANDS =      -594.59983960
  atomic energy  EATOM  =     12518.42026192
  Solvation  Ediel_sol  =         0.00000000
  ---------------------------------------------------
  free energy    TOTEN  =       -21.03115153 eV

  energy without entropy =      -21.03115153  energy(sigma->0) =      -21.03115153


--------------------------------------------------------------------------------------------------------




----------------------------------------- Iteration    1(  27)  ---------------------------------------


    POTLOK:  cpu time    0.2933: real time    0.2938
    SETDIJ:  cpu time    0.0075: real time    0.0075
     EDDAV:  cpu time    1.0065: real time    1.0073
       DOS:  cpu time    0.0001: real time    0.0001
    CHARGE:  cpu time    0.0513: real time    0.0516
    MIXING:  cpu time    0.0232: real time    0.0232
    --------------------------------------------
      LOOP:  cpu time    1.3852: real time    1.3894

 eigenvalue-minimisations  :   432
 total energy-change (2. order) :-0.1350334E-02  (-0.2801193E-04)
 number of electron      98.9999819 magnetization       0.9978126
 augmentation part       63.6296155 magnetization       0.0573581

 Broyden mixing:
  rms(total) = 0.16095E-02    rms(broyden)= 0.16090E-02
  rms(prec ) = 0.25231E-02
  weight for this iteration     100.00

 eigenvalues of (default mixing * dielectric matrix)
  average eigenvalue GAMMA=   1.3948
  7.1568  3.6496  3.6496  1.9305  1.9305  1.3614  1.3614  1.0219  1.0219  0.8782
  0.6825  0.6825  0.7298  0.7298  0.5344  0.5344  0.5881  0.3720  0.4192  0.4922
  0.4922  0.4667

 Free energy of the ion-electron system (eV)
  ---------------------------------------------------
  alpha Z        PSCENC =         8.66860006
  Ewald energy   TEWEN  =     10910.03883333
  -Hartree energ DENC   =    -22296.35017445
  -exchange      EXHF   =         0.00000000
  -V(xc)+E(xc)   XCENC  =       397.37221046
  PAW double counting   =     11570.05636798   -12534.16259885
  entropy T*S    EENTRO =         0.00000000
  eigenvalues    EBANDS =      -595.07600231
  atomic energy  EATOM  =     12518.42026192
  Solvation  Ediel_sol  =         0.00000000
  ---------------------------------------------------
  free energy    TOTEN  =       -21.03250186 eV

  energy without entropy =      -21.03250186  energy(sigma->0) =      -21.03250186


--------------------------------------------------------------------------------------------------------




----------------------------------------- Iteration    1(  28)  ---------------------------------------


    POTLOK:  cpu time    0.2911: real time    0.2913
    SETDIJ:  cpu time    0.0068: real time    0.0068
     EDDAV:  cpu time    1.0063: real time    1.0073
       DOS:  cpu time    0.0001: real time    0.0001
    CHARGE:  cpu time    0.0511: real time    0.0511
    MIXING:  cpu time    0.0249: real time    0.0249
    --------------------------------------------
      LOOP:  cpu time    1.3837: real time    1.3876

 eigenvalue-minimisations  :   432
 total energy-change (2. order) :-0.1386548E-02  (-0.2038253E-04)
 number of electron      98.9999819 magnetization       1.0014563
 augmentation part       63.6280079 magnetization       0.0613412

 Broyden mixing:
  rms(total) = 0.12902E-02    rms(broyden)= 0.12900E-02
  rms(prec ) = 0.18394E-02
  weight for this iteration     100.00

 eigenvalues of (default mixing * dielectric matrix)
  average eigenvalue GAMMA=   1.4082
  7.1397  4.0497  3.3060  2.5889  1.7147  1.7147  1.1971  1.1971  1.0081  1.0081
  0.8061  0.8061  0.6799  0.6799  0.5343  0.5343  0.5981  0.5981  0.3719  0.4192
  0.4804  0.4804  0.4758

 Free energy of the ion-electron system (eV)
  ---------------------------------------------------
  alpha Z        PSCENC =         8.66860006
  Ewald energy   TEWEN  =     10910.03883333
  -Hartree energ DENC   =    -22295.98543139
  -exchange      EXHF   =         0.00000000
  -V(xc)+E(xc)   XCENC  =       397.37119129
  PAW double counting   =     11570.95959250   -12535.07633903
  entropy T*S    EENTRO =         0.00000000
  eigenvalues    EBANDS =      -595.43059709
  atomic energy  EATOM  =     12518.42026192
  Solvation  Ediel_sol  =         0.00000000
  ---------------------------------------------------
  free energy    TOTEN  =       -21.03388841 eV

  energy without entropy =      -21.03388841  energy(sigma->0) =      -21.03388841


--------------------------------------------------------------------------------------------------------




----------------------------------------- Iteration    1(  29)  ---------------------------------------


    POTLOK:  cpu time    0.2914: real time    0.2914
    SETDIJ:  cpu time    0.0069: real time    0.0069
     EDDAV:  cpu time    0.9540: real time    0.9551
       DOS:  cpu time    0.0001: real time    0.0001
    CHARGE:  cpu time    0.0510: real time    0.0510
    MIXING:  cpu time    0.0314: real time    0.0314
    --------------------------------------------
      LOOP:  cpu time    1.3380: real time    1.3419

 eigenvalue-minimisations  :   404
 total energy-change (2. order) :-0.4633357E-03  (-0.7936483E-05)
 number of electron      98.9999819 magnetization       0.9988120
 augmentation part       63.6282724 magnetization       0.0580574

 Broyden mixing:
  rms(total) = 0.82825E-03    rms(broyden)= 0.82804E-03
  rms(prec ) = 0.12578E-02
  weight for this iteration     100.00

 eigenvalues of (default mixing * dielectric matrix)
  average eigenvalue GAMMA=   1.4194
  7.1430  4.3735  3.0747  3.0747  1.8051  1.8051  1.2007  1.2007  1.0087  1.0087
  0.9928  0.8465  0.6805  0.6805  0.5343  0.5343  0.6513  0.6513  0.3719  0.5627
  0.4192  0.4905  0.4777  0.4777

 Free energy of the ion-electron system (eV)
  ---------------------------------------------------
  alpha Z        PSCENC =         8.66860006
  Ewald energy   TEWEN  =     10910.03883333
  -Hartree energ DENC   =    -22295.58101293
  -exchange      EXHF   =         0.00000000
  -V(xc)+E(xc)   XCENC  =       397.36754528
  PAW double counting   =     11570.79185256   -12534.91485698
  entropy T*S    EENTRO =         0.00000000
  eigenvalues    EBANDS =      -595.82557499
  atomic energy  EATOM  =     12518.42026192
  Solvation  Ediel_sol  =         0.00000000
  ---------------------------------------------------
  free energy    TOTEN  =       -21.03435175 eV

  energy without entropy =      -21.03435175  energy(sigma->0) =      -21.03435175


--------------------------------------------------------------------------------------------------------




----------------------------------------- Iteration    1(  30)  ---------------------------------------


    POTLOK:  cpu time    0.2913: real time    0.2913
    SETDIJ:  cpu time    0.0070: real time    0.0070
     EDDAV:  cpu time    0.9894: real time    0.9902
       DOS:  cpu time    0.0001: real time    0.0001
    CHARGE:  cpu time    0.0505: real time    0.0521
    MIXING:  cpu time    0.0291: real time    0.0291
    --------------------------------------------
      LOOP:  cpu time    1.3707: real time    1.3759

 eigenvalue-minimisations  :   424
 total energy-change (2. order) :-0.1344436E-02  (-0.4076395E-05)
 number of electron      98.9999819 magnetization       1.0004700
 augmentation part       63.6286912 magnetization       0.0602085

 Broyden mixing:
  rms(total) = 0.62628E-03    rms(broyden)= 0.62614E-03
  rms(prec ) = 0.91490E-03
  weight for this iteration     100.00

 eigenvalues of (default mixing * dielectric matrix)
  average eigenvalue GAMMA=   1.4553
  7.1162  5.0678  3.3602  2.8088  2.2942  1.6807  1.6807  1.1890  1.1890  0.9968
  0.9968  0.6807  0.6807  0.7713  0.7713  0.5343  0.5343  0.3719  0.6346  0.5851
  0.5735  0.4193  0.4779  0.4835  0.4835

 Free energy of the ion-electron system (eV)
  ---------------------------------------------------
  alpha Z        PSCENC =         8.66860006
  Ewald energy   TEWEN  =     10910.03883333
  -Hartree energ DENC   =    -22295.35020211
  -exchange      EXHF   =         0.00000000
  -V(xc)+E(xc)   XCENC  =       397.36413798
  PAW double counting   =     11570.58680545   -12534.71600507
  entropy T*S    EENTRO =         0.00000000
  eigenvalues    EBANDS =      -596.04812775
  atomic energy  EATOM  =     12518.42026192
  Solvation  Ediel_sol  =         0.00000000
  ---------------------------------------------------
  free energy    TOTEN  =       -21.03569618 eV

  energy without entropy =      -21.03569618  energy(sigma->0) =      -21.03569618


--------------------------------------------------------------------------------------------------------




----------------------------------------- Iteration    1(  31)  ---------------------------------------


    POTLOK:  cpu time    0.2911: real time    0.2913
    SETDIJ:  cpu time    0.0069: real time    0.0069
     EDDAV:  cpu time    0.9788: real time    0.9799
       DOS:  cpu time    0.0001: real time    0.0001
    CHARGE:  cpu time    0.0511: real time    0.0511
    MIXING:  cpu time    0.0317: real time    0.0317
    --------------------------------------------
      LOOP:  cpu time    1.3631: real time    1.3669

 eigenvalue-minimisations  :   416
 total energy-change (2. order) :-0.7799648E-03  (-0.3079822E-05)
 number of electron      98.9999819 magnetization       0.9981893
 augmentation part       63.6286844 magnetization       0.0577675

 Broyden mixing:
  rms(total) = 0.40712E-03    rms(broyden)= 0.40696E-03
  rms(prec ) = 0.58984E-03
  weight for this iteration     100.00

 eigenvalues of (default mixing * dielectric matrix)
  average eigenvalue GAMMA=   1.4841
  7.1531  5.7540  3.7444  2.6184  2.6184  1.6924  1.6924  1.1929  1.1929  0.9951
  0.9951  1.0214  0.6807  0.6807  0.7839  0.5343  0.5343  0.7129  0.3719  0.6256
  0.4193  0.5774  0.5559  0.4806  0.4806  0.4774

 Free energy of the ion-electron system (eV)
  ---------------------------------------------------
  alpha Z        PSCENC =         8.66860006
  Ewald energy   TEWEN  =     10910.03883333
  -Hartree energ DENC   =    -22295.18725289
  -exchange      EXHF   =         0.00000000
  -V(xc)+E(xc)   XCENC  =       397.36258064
  PAW double counting   =     11570.59859104   -12534.73471135
  entropy T*S    EENTRO =         0.00000000
  eigenvalues    EBANDS =      -596.20337891
  atomic energy  EATOM  =     12518.42026192
  Solvation  Ediel_sol  =         0.00000000
  ---------------------------------------------------
  free energy    TOTEN  =       -21.03647615 eV

  energy without entropy =      -21.03647615  energy(sigma->0) =      -21.03647615


--------------------------------------------------------------------------------------------------------




----------------------------------------- Iteration    1(  32)  ---------------------------------------


    POTLOK:  cpu time    0.2909: real time    0.2910
    SETDIJ:  cpu time    0.0070: real time    0.0070
     EDDAV:  cpu time    0.8328: real time    0.8334
       DOS:  cpu time    0.0001: real time    0.0001
    CHARGE:  cpu time    0.0511: real time    0.0511
    MIXING:  cpu time    0.0338: real time    0.0337
    --------------------------------------------
      LOOP:  cpu time    1.2188: real time    1.2225

 eigenvalue-minimisations  :   336
 total energy-change (2. order) :-0.9253650E-04  (-0.7461724E-06)
 number of electron      98.9999819 magnetization       0.9992466
 augmentation part       63.6288180 magnetization       0.0591010

 Broyden mixing:
  rms(total) = 0.27224E-03    rms(broyden)= 0.27216E-03
  rms(prec ) = 0.40268E-03
  weight for this iteration     100.00

 eigenvalues of (default mixing * dielectric matrix)
  average eigenvalue GAMMA=   1.5232
  7.1447  6.5627  3.9029  2.8190  2.8190  1.7999  1.7999  1.2056  1.2056  1.0039
  1.0039  1.0159  1.0159  0.6806  0.6806  0.7636  0.5343  0.5343  0.6463  0.6463
  0.3719  0.4193  0.5549  0.5549  0.4832  0.4832  0.4748

 Free energy of the ion-electron system (eV)
  ---------------------------------------------------
  alpha Z        PSCENC =         8.66860006
  Ewald energy   TEWEN  =     10910.03883333
  -Hartree energ DENC   =    -22295.11594670
  -exchange      EXHF   =         0.00000000
  -V(xc)+E(xc)   XCENC  =       397.36178339
  PAW double counting   =     11570.59582624   -12534.73127753
  entropy T*S    EENTRO =         0.00000000
  eigenvalues    EBANDS =      -596.27464939
  atomic energy  EATOM  =     12518.42026192
  Solvation  Ediel_sol  =         0.00000000
[...]
      7      -7.0479      1.00000
      8      -6.8809      1.00000
      9      -6.8159      1.00000
     10      -6.7823      1.00000
     11      -6.6934      1.00000
     12      -6.6399      1.00000
     13      -6.5406      1.00000
     14      -6.5221      1.00000
     15      -6.4458      1.00000
     16      -6.3131      1.00000
     17      -6.2483      1.00000
     18      -6.0942      1.00000
     19      -6.0829      1.00000
     20      -6.0046      1.00000
     21      -5.9237      1.00000
     22      -5.9130      1.00000
     23      -5.8729      1.00000
     24      -5.8024      1.00000
     25      -5.7628      1.00000
     26      -5.6846      1.00000
     27      -5.6334      1.00000
     28      -5.6124      1.00000
     29      -5.5931      1.00000
     30      -5.5706      1.00000
     31      -5.5385      1.00000
     32      -5.5091      1.00000
     33      -5.4716      1.00000
     34      -5.3941      1.00000
     35      -5.3550      1.00000
     36      -5.3404      1.00000
     37      -5.2922      1.00000
     38      -5.2683      1.00000
     39      -5.2356      1.00000
     40      -5.1997      1.00000
     41      -5.1891      1.00000
     42      -5.1504      1.00000
     43      -5.1227      1.00000
     44      -5.0853      1.00000
     45      -5.0773      1.00000
     46      -5.0219      1.00000
     47      -5.0104      1.00000
     48      -4.9662      1.00000
     49      -4.4179      1.00000
     50      -3.6163      0.00000
     51      -3.1661      0.00000
     52      -2.9116      0.00000
     53      -2.5080      0.00000
     54      -2.0274      0.00000
     55      -1.5125      0.00000
     56      -1.3657      0.00000
     57      -1.1246      0.00000
     58      -0.7451      0.00000
     59      -0.5024      0.00000
     60      -0.3582      0.00000
     61      -0.1385      0.00000
     62       0.0837      0.00000
     63       0.2829      0.00000
     64       0.3724      0.00000
     65       0.4225      0.00000
     66       0.4906      0.00000
     67       0.5010      0.00000
     68       0.5488      0.00000
     69       0.5574      0.00000
     70       0.6027      0.00000
     71       0.7035      0.00000
     72       0.7697      0.00000
     73       0.7993      0.00000
     74       0.8508      0.00000
     75       0.8726      0.00000
     76       0.8786      0.00000


--------------------------------------------------------------------------------------------------------


 soft charge-density along one line, spin component           1
         0         1         2         3         4         5         6         7         8         9
 total charge-density along one line
 
 soft charge-density along one line, spin component           2
         0         1         2         3         4         5         6         7         8         9
 total charge-density along one line
 
 pseudopotential strength for first ion, spin component:           1
-10.283  -0.031  -0.035  -0.002  -0.001   0.830   0.023   0.027
 -0.031 -10.386  -0.007   0.034   0.004   0.023   0.906   0.005
 -0.035  -0.007 -10.369  -0.013  -0.026   0.027   0.005   0.894
 -0.002   0.034  -0.013 -10.323  -0.024   0.002  -0.026   0.010
 -0.001   0.004  -0.026  -0.024 -10.281   0.000  -0.004   0.020
  0.830   0.023   0.027   0.002   0.000   6.437  -0.016  -0.019
  0.023   0.906   0.005  -0.026  -0.004  -0.016   6.387  -0.004
  0.027   0.005   0.894   0.010   0.020  -0.019  -0.004   6.398
  0.002  -0.026   0.010   0.859   0.019  -0.002   0.018  -0.007
  0.000  -0.004   0.020   0.019   0.828  -0.000   0.003  -0.013
 -0.008   0.002   0.009   0.007  -0.006   0.002  -0.002   0.002
 -0.014   0.003   0.016   0.013  -0.011   0.004  -0.005   0.005
 -0.004  -0.013  -0.001  -0.001  -0.002   0.002   0.002  -0.000
 -0.001   0.003  -0.017  -0.005  -0.001   0.000  -0.001   0.005
  0.002  -0.001   0.003  -0.015  -0.006  -0.000   0.000  -0.001
 -0.004  -0.011  -0.001  -0.001  -0.002   0.000  -0.003  -0.001
 -0.001   0.003  -0.015  -0.005  -0.001   0.000  -0.001   0.000
  0.001  -0.001   0.003  -0.013  -0.006   0.000   0.000   0.000
 pseudopotential strength for first ion, spin component:           2
-10.281  -0.030  -0.034  -0.002  -0.000   0.826   0.022   0.026
 -0.030 -10.381  -0.009   0.035   0.005   0.022   0.902   0.007
 -0.034  -0.009 -10.364  -0.017  -0.027   0.026   0.007   0.889
 -0.002   0.035  -0.017 -10.320  -0.023   0.001  -0.026   0.012
 -0.000   0.005  -0.027  -0.023 -10.279   0.000  -0.003   0.021
  0.826   0.022   0.026   0.001   0.000   6.434  -0.015  -0.018
  0.022   0.902   0.007  -0.026  -0.003  -0.015   6.382  -0.005
  0.026   0.007   0.889   0.012   0.021  -0.018  -0.005   6.393
  0.001  -0.026   0.012   0.856   0.017  -0.001   0.018  -0.008
  0.000  -0.003   0.021   0.017   0.824  -0.000   0.002  -0.014
 -0.007   0.000   0.011   0.006  -0.007   0.002  -0.001  -0.001
 -0.013   0.001   0.019   0.010  -0.012   0.003  -0.001  -0.000
 -0.004  -0.013  -0.000  -0.001  -0.002   0.001   0.005   0.000
 -0.001   0.003  -0.018  -0.004  -0.001   0.001  -0.003   0.009
  0.002  -0.001   0.003  -0.015  -0.005  -0.001   0.001  -0.001
 -0.003  -0.012  -0.000  -0.001  -0.003  -0.001   0.001  -0.000
 -0.001   0.004  -0.017  -0.003  -0.001   0.001  -0.003   0.006
  0.002  -0.001   0.003  -0.014  -0.005  -0.001   0.001   0.000
 total augmentation occupancy for first ion, spin component:           1
  1.970  -0.011  -0.009   0.002  -0.000  -0.021   0.008   0.002  -0.003   0.001   0.013  -0.001   0.034  -0.009  -0.014  -0.011
 -0.011   1.934  -0.007   0.011   0.001   0.008   0.005   0.005  -0.007   0.000   0.013   0.000   0.106   0.007  -0.021  -0.034
 -0.009  -0.007   1.956  -0.001  -0.004   0.002   0.005  -0.008   0.003   0.001  -0.050  -0.001   0.019   0.079  -0.007  -0.002
  0.002   0.011  -0.001   1.959  -0.003  -0.003  -0.007   0.003  -0.013   0.001  -0.008  -0.001  -0.020   0.030   0.058   0.000
 -0.000   0.001  -0.004  -0.003   1.974   0.001   0.000   0.001   0.001  -0.024   0.021  -0.000   0.003  -0.013   0.011  -0.002
 -0.021   0.008   0.002  -0.003   0.001   0.002   0.001  -0.000  -0.001   0.000  -0.023   0.001   0.003  -0.003  -0.002  -0.000
  0.008   0.005   0.005  -0.007   0.000   0.001   0.006  -0.000  -0.001   0.000  -0.004   0.001   0.011  -0.002  -0.001  -0.001
  0.002   0.005  -0.008   0.003   0.001  -0.000  -0.000   0.008   0.001  -0.000   0.054  -0.005   0.000   0.021   0.001  -0.000
 -0.003  -0.007   0.003  -0.013   0.001  -0.001  -0.001   0.001   0.005   0.000   0.031  -0.002  -0.001   0.007   0.009   0.000
  0.001   0.000   0.001   0.001  -0.024   0.000   0.000  -0.000   0.000   0.002  -0.023   0.001   0.002  -0.003   0.001  -0.000
  0.013   0.013  -0.050  -0.008   0.021  -0.023  -0.004   0.054   0.031  -0.023   1.620  -0.058  -0.025   0.238   0.069   0.003
 -0.001   0.000  -0.001  -0.001  -0.000   0.001   0.001  -0.005  -0.002   0.001  -0.058   0.006   0.002  -0.020  -0.004  -0.000
  0.034   0.106   0.019  -0.020   0.003   0.003   0.011   0.000  -0.001   0.002  -0.025   0.002   0.033  -0.006  -0.004  -0.004
 -0.009   0.007   0.079   0.030  -0.013  -0.003  -0.002   0.021   0.007  -0.003   0.238  -0.020  -0.006   0.084   0.011   0.000
 -0.014  -0.021  -0.007   0.058   0.011  -0.002  -0.001   0.001   0.009   0.001   0.069  -0.004  -0.004   0.011   0.025   0.001
 -0.011  -0.034  -0.002   0.000  -0.002  -0.000  -0.001  -0.000   0.000  -0.000   0.003  -0.000  -0.004   0.000   0.001   0.001
  0.000   0.003  -0.039  -0.010   0.001   0.000   0.000  -0.002  -0.001   0.000  -0.027   0.002   0.000  -0.008  -0.002  -0.000
  0.004   0.000   0.007  -0.033  -0.012   0.000   0.000  -0.000  -0.000   0.000  -0.008   0.000   0.001  -0.002  -0.002  -0.000
 total augmentation occupancy for first ion, spin component:           2
  0.001  -0.001   0.000  -0.001   0.000   0.004  -0.000  -0.000  -0.000  -0.000   0.004   0.001   0.002  -0.001   0.002   0.000
 -0.001   0.006  -0.002   0.001   0.001  -0.000   0.004   0.000  -0.000   0.000  -0.018  -0.003  -0.006   0.005  -0.001  -0.001
  0.000  -0.002   0.007  -0.003  -0.000  -0.000   0.000   0.004   0.000   0.000   0.026   0.005   0.000  -0.009   0.000  -0.000
 -0.001   0.001  -0.003   0.004   0.000  -0.000  -0.000   0.000   0.004  -0.000  -0.019  -0.003  -0.001   0.006  -0.006  -0.000
  0.000   0.001  -0.000   0.000   0.001  -0.000   0.000   0.000  -0.000   0.004  -0.004  -0.001  -0.002  -0.000   0.001  -0.000
  0.004  -0.000  -0.000  -0.000  -0.000  -0.000   0.000   0.000   0.000  -0.000  -0.000  -0.000  -0.000   0.000  -0.000  -0.000
 -0.000   0.004   0.000  -0.000   0.000   0.000  -0.000  -0.000   0.000  -0.000   0.003   0.000   0.000  -0.001   0.000  -0.000
 -0.000   0.000   0.004   0.000   0.000   0.000  -0.000  -0.000  -0.000  -0.000  -0.005  -0.000  -0.000   0.001  -0.000  -0.000
 -0.000  -0.000   0.000   0.004  -0.000   0.000   0.000  -0.000  -0.000   0.000   0.003   0.000   0.000  -0.001   0.000   0.000
 -0.000   0.000   0.000  -0.000   0.004  -0.000  -0.000  -0.000   0.000  -0.000   0.001   0.000  -0.000   0.000   0.000   0.000
  0.004  -0.018   0.026  -0.019  -0.004  -0.000   0.003  -0.005   0.003   0.001   0.229   0.009   0.016  -0.042   0.014   0.000
  0.001  -0.003   0.005  -0.003  -0.001  -0.000   0.000  -0.000   0.000   0.000   0.009   0.001   0.000  -0.001   0.000   0.000
  0.002  -0.006   0.000  -0.001  -0.002  -0.000   0.000  -0.000   0.000  -0.000   0.016   0.000   0.001  -0.001   0.001   0.000
 -0.001   0.005  -0.009   0.006  -0.000   0.000  -0.001   0.001  -0.001   0.000  -0.042  -0.001  -0.001   0.002  -0.002  -0.000
  0.002  -0.001   0.000  -0.006   0.001  -0.000   0.000  -0.000   0.000   0.000   0.014   0.000   0.001  -0.002   0.001   0.000
  0.000  -0.001  -0.000  -0.000  -0.000  -0.000  -0.000  -0.000   0.000   0.000   0.000   0.000   0.000  -0.000   0.000   0.000
 -0.000   0.001  -0.001   0.001   0.000  -0.000  -0.000  -0.000  -0.000  -0.000  -0.001  -0.000  -0.000   0.001  -0.000  -0.000
  0.000  -0.000  -0.000  -0.001   0.000   0.000  -0.000   0.000  -0.000  -0.000  -0.000   0.000  -0.000   0.000   0.000   0.000


------------------------ aborting loop because EDIFF is reached ----------------------------------------


 


 total charge     
 
# of ion     s       p       d       tot
----------------------------------------
  1        0.500   0.071   9.298   9.869
  2        0.437   0.259   9.247   9.943
  3        0.484   0.102   9.299   9.884
  4        0.446   0.200   9.273   9.919
  5        0.451   0.220   9.252   9.924
  6        0.441   0.283   9.234   9.957
  7        0.443   0.212   9.265   9.921
  8        0.463   0.147   9.290   9.900
  9        0.467   0.143   9.280   9.890
------------------------------------------------
tot        4.132   1.637  83.437  89.206
 


 magnetization (x)
 
# of ion     s       p       d       tot
----------------------------------------
  1        0.090   0.003   0.002   0.095
  2        0.000   0.013   0.020   0.034
  3       -0.002   0.004   0.016   0.017
  4        0.002   0.013   0.015   0.030
  5        0.038   0.004   0.028   0.071
  6        0.003   0.011   0.020   0.033
  7        0.000   0.013   0.019   0.032
  8       -0.001   0.015   0.014   0.028
  9        0.074   0.011   0.017   0.102
------------------------------------------------
tot        0.204   0.087   0.152   0.443
 
    CHARGE:  cpu time    0.0497: real time    0.0497
    FORLOC:  cpu time    0.0105: real time    0.0105
    FORNL :  cpu time    0.4054: real time    0.4069
    STRESS:  cpu time    0.3717: real time    0.3718
    FORCOR:  cpu time    0.2861: real time    0.2861
    FORHAR:  cpu time    0.0379: real time    0.0382
    MIXING:  cpu time    0.0080: real time    0.0080
    OFIELD:  cpu time    0.0001: real time    0.0001

  FORCE on cell =-STRESS in cart. coord.  units (eV):
  Direction    XX          YY          ZZ          XY          YZ          ZX
  --------------------------------------------------------------------------------------
  Alpha Z     8.66860     8.66860     8.66860
  Ewald    2156.35118  3251.95160  5499.47234 -1599.08105  -404.57533  -433.10373
  Hartree  6158.22587  7060.14380  9074.55946 -1341.16770  -370.66163  -362.44101
  E(xc)    -577.84106  -577.44511  -576.89860    -0.46255    -0.07327    -0.11522
  Local   -9188.63481-11180.24379-15438.20793  2930.37956   776.15239   794.03244
  n-local  -220.70550  -220.41131  -219.60780     0.26274    -0.41032    -0.16122
  augment   845.26851   842.46553   839.39916     4.71494    -0.15703     0.68761
  Kinetic   816.30637   812.51124   810.31732     5.42513    -0.24236     1.08037
  Fock        0.00000     0.00000     0.00000     0.00000     0.00000     0.00000
  -------------------------------------------------------------------------------------
  Total      -2.36085    -2.35944    -2.29744     0.07107     0.03246    -0.02076
  in kB      -0.55352    -0.55319    -0.53865     0.01666     0.00761    -0.00487
  external pressure =       -0.55 kB  Pullay stress =        0.00 kB


 VOLUME and BASIS-vectors are now :
 -----------------------------------------------------------------------------
  energy-cutoff  :      295.45
  volume of cell :     6833.58
      direct lattice vectors                 reciprocal lattice vectors
    18.976499000  0.000000000  0.000000000     0.052696759  0.000000000  0.000000000
     0.000000000 18.976499000  0.000000000     0.000000000  0.052696759  0.000000000
     0.000000000  0.000000000 18.976499000     0.000000000  0.000000000  0.052696759

  length of vectors
    18.976499000 18.976499000 18.976499000     0.052696759  0.052696759  0.052696759


 FORCES acting on ions
    electron-ion (+dipol)            ewald-force                    non-local-force                 convergence-correction
 -----------------------------------------------------------------------------------------------
   0.197E+03 -.162E+03 0.961E+03   -.193E+03 0.161E+03 -.950E+03   -.325E+01 0.103E+01 -.104E+02   0.144E-01 -.477E-02 0.719E-02
   -.176E+03 0.488E+03 0.831E+03   0.175E+03 -.485E+03 -.828E+03   0.194E+01 -.343E+01 -.307E+01   0.377E-01 0.138E-01 -.342E-01
   -.106E+04 0.392E+03 0.118E+03   0.104E+04 -.388E+03 -.117E+03   0.111E+02 -.426E+01 -.169E+01   -.174E-01 0.233E-01 -.325E-01
   -.159E+02 0.113E+04 -.288E+03   0.144E+02 -.113E+04 0.286E+03   0.155E+01 -.825E+01 0.200E+01   0.844E-02 -.541E-02 -.243E-02
   0.111E+04 0.266E+03 0.688E+02   -.110E+04 -.267E+03 -.676E+02   -.632E+01 0.100E+01 -.125E+01   -.177E-01 -.326E-02 -.486E-02
   -.816E+03 -.467E+03 -.420E+03   0.815E+03 0.466E+03 0.418E+03   0.125E+01 0.635E+00 0.173E+01   0.116E-01 -.301E-01 0.329E-02
   0.138E+03 -.952E+03 0.444E+03   -.138E+03 0.945E+03 -.441E+03   -.383E-01 0.671E+01 -.260E+01   -.770E-02 -.159E-01 0.163E-01
   0.375E+03 -.937E+03 -.600E+03   -.369E+03 0.930E+03 0.593E+03   -.531E+01 0.741E+01 0.670E+01   0.117E-01 0.274E-01 0.118E-01
   0.246E+03 0.237E+03 -.112E+04   -.245E+03 -.236E+03 0.111E+04   -.135E+01 -.990E+00 0.831E+01   -.387E-01 -.154E-01 0.332E-01
 -----------------------------------------------------------------------------------------------
   0.420E+00 0.206E+00 0.165E+00   -.256E-12 -.227E-12 0.682E-12   -.430E+00 -.140E+00 -.232E+00   0.231E-02 -.103E-01 -.218E-02
 
 
 POSITION                                       TOTAL-FORCE (eV/Angst)
 -----------------------------------------------------------------------------------
      8.93904     10.15220      6.37358         0.007887     -0.002694      0.002342
      9.82212      8.81408      8.10111         0.015856      0.005156     -0.012755
     11.85620      8.30326      9.31481        -0.004467      0.010692     -0.019894
      9.70741      7.57539     10.21083         0.001119      0.000608     -0.000784
      8.01743      9.21125      9.71141        -0.002646     -0.000547      0.000026
     10.43911      9.92630     10.25477        -0.002495     -0.009228      0.005146
      9.06946     11.08543      8.54712        -0.003912     -0.006242      0.010025
      8.64301     11.28377     10.92095         0.008032      0.009011      0.003928
      8.90047      9.04258     11.95967        -0.019374     -0.006756      0.011967
 -----------------------------------------------------------------------------------
    total drift:                               -0.007422      0.055223     -0.069034


--------------------------------------------------------------------------------------------------------



  FREE ENERGIE OF THE ION-ELECTRON SYSTEM (eV)
  ---------------------------------------------------
  free  energy   TOTEN  =       -21.03692958 eV

  energy  without entropy=      -21.03692958  energy(sigma->0) =      -21.03692958
 
 d Force = 0.1511812E-03[ 0.122E-03, 0.181E-03]  d Energy = 0.1502569E-03 0.924E-06
 d Force = 0.2258551E+01[ 0.226E+01, 0.226E+01]  d Ewald  = 0.2258551E+01 0.982E-07


--------------------------------------------------------------------------------------------------------


    POTLOK:  cpu time    0.2978: real time    0.2983


--------------------------------------------------------------------------------------------------------


 Steepest descent step on ions:
 trial-energy change:   -0.000150  1 .order   -0.000151   -0.000181   -0.000122
  (g-gl).g = 0.181E-03      g.g   = 0.181E-03  gl.gl    = 0.000E+00
 g(Force)  = 0.181E-03   g(Stress)= 0.000E+00 ortho     = 0.000E+00
 gamma     =   0.00000
 trial     =   1.00000
 opt step  =   3.06632  (harmonic =   3.06632) maximal distance =0.00321174
 next E    =   -21.037056   (d E  =  -0.00028)


--------------------------------------------------------------------------------------------------------


  
 reached required accuracy - stopping structural energy minimisation
     LOOP+:  cpu time    6.4633: real time    6.4853
    4ORBIT:  cpu time    0.0000: real time    0.0000
 


 total charge     
 
# of ion     s       p       d       tot
----------------------------------------
  1        0.500   0.071   9.298   9.869
  2        0.437   0.259   9.247   9.943
  3        0.484   0.102   9.299   9.884
  4        0.446   0.200   9.273   9.919
  5        0.451   0.220   9.252   9.924
  6        0.441   0.283   9.234   9.957
  7        0.443   0.212   9.265   9.921
  8        0.463   0.147   9.290   9.900
  9        0.467   0.143   9.280   9.890
------------------------------------------------
tot        4.132   1.637  83.437  89.206
 


 magnetization (x)
 
# of ion     s       p       d       tot
----------------------------------------
  1        0.090   0.003   0.002   0.095
  2        0.000   0.013   0.020   0.034
  3       -0.002   0.004   0.016   0.017
  4        0.002   0.013   0.015   0.030
  5        0.038   0.004   0.028   0.071
  6        0.003   0.011   0.020   0.033
  7        0.000   0.013   0.019   0.032
  8       -0.001   0.015   0.014   0.028
  9        0.074   0.011   0.017   0.102
------------------------------------------------
tot        0.204   0.087   0.152   0.443
 

 total amount of memory used by VASP on root node    64143. kBytes
========================================================================

   base      :      30000. kBytes
   nonl-proj :       1896. kBytes
   fftplans  :       7971. kBytes
   grid      :      20231. kBytes
   one-center:         31. kBytes
   wavefun   :       4014. kBytes
 
  
  
 General timing and accounting informations for this job:
 ========================================================
  
                  Total CPU time used (sec):       61.025
                            User time (sec):       59.506
                          System time (sec):        1.518
                         Elapsed time (sec):       61.940
  
                   Maximum memory used (kb):      107600.
                   Average memory used (kb):           0.
  
                          Minor page faults:       266729
                          Major page faults:            0
                 Voluntary context switches:         1297
